ITEM: TIMESTEP
50000
ITEM: NUMBER OF ATOMS
1000
ITEM: BOX BOUNDS pp pp pp
0.0000000000000000e+00 2.6762876615300002e+01
0.0000000000000000e+00 2.6762876615300002e+01
0.0000000000000000e+00 2.6762876615300002e+01
ITEM: ATOMS id type x y z
970 1 2.26054 8.49483 8.53529
763 1 4.52605 7.81171 0.963614
474 1 5.68796 7.51653 3.47737
718 1 2.611 7.89981 4.64328
172 1 0.457482 0.642706 5.23559
991 1 8.68603 2.45056 3.26898
188 1 8.29504 0.572394 0.917811
517 1 8.39208 8.86703 6.97938
656 1 8.79724 5.64328 7.32395
728 1 5.99931 1.77031 7.77223
912 1 4.79011 0.295472 4.41816
176 1 5.01232 8.44236 6.20644
773 1 3.76083 6.50459 7.87645
620 1 7.306 0.750009 5.6495
160 1 0.923795 4.20474 1.25752
603 1 2.57631 4.16552 6.84956
276 1 3.35354 3.39288 0.742076
767 1 7.85253 6.63662 2.18996
414 1 3.7616 5.25935 4.99859
393 1 5.45637 4.78429 7.00216
1000 1 3.91359 5.77868 2.31947
5 1 7.34574 3.30552 5.93746
903 1 0.873772 7.92455 0.113375
88 1 5.43271 3.31968 4.02302
892 1 5.02847 1.48852 1.99689
522 1 6.85795 4.09926 1.59693
210 1 3.69014 1.8071 6.36913
90 1 2.22495 2.72487 3.30595
872 1 0.279624 4.3386 8.6456
585 1 1.35579 5.02008 4.46021
600 1 1.09453 6.63708 6.51754
358 1 7.33053 6.51049 5.29929
20 1 1.48226 1.59902 1.06541
320 1 0.589411 6.98562 2.91406
580 1 6.56007 7.6725 8.66045
675 1 1.33687 1.65054 7.69471
809 1 10.795 1.49559 2.09831
306 1 15.6267 8.89403 0.882781
893 1 14.7495 0.264096 4.13877
87 1 15.6512 2.15219 5.79414
856 1 16.19 4.76165 5.99472
931 1 14.1383 3.25135 7.73772
140 1 16.9055 1.74885 2.63392
100 1 16.0686 4.27837 3.09015
239 1 11.3302 3.25996 3.92859
527 1 17.1568 5.99479 1.47578
110 1 14.8517 6.73851 4.17326
497 1 14.7014 6.59782 7.02864
274 1 13.2539 4.63264 5.58931
14 1 12.4999 6.09746 3.78874
454 1 11.5572 8.23594 6.09939
715 1 16.4608 8.45182 6.12372
289 1 10.9748 4.31137 6.53127
338 1 14.1568 2.46083 2.65172
37 1 9.84518 7.53362 3.93244
224 1 9.78305 2.05265 5.63983
345 1 9.50265 4.9233 4.15466
553 1 12.8649 1.79035 5.83512
192 1 13.7339 6.28885 1.60268
282 1 9.24401 0.0726322 8.00278
781 1 9.07979 2.97839 8.32447
737 1 9.62795 4.17479 1.59671
923 1 10.069 7.31965 8.856
845 1 9.27293 8.80579 1.56785
817 1 15.9337 1.28772 8.3066
314 1 12.0428 8.52076 2.84352
801 1 10.7788 6.64943 1.56027
686 1 16.9721 3.89687 8.54875
27 1 12.2813 4.02796 1.41857
607 1 16.8217 8.6322 3.55493
980 1 15.1936 4.0469 0.332711
850 1 12.3424 6.17774 7.89767
410 1 11.5153 1.81675 8.11324
137 1 25.3065 5.1599 4.13815
232 1 18.085 2.9888 5.04206
796 1 19.3242 2.66101 7.71738
724 1 26.2397 3.51585 6.21138
805 1 22.4191 0.654454 7.08009
139 1 26.158 7.02567 8.76736
775 1 24.0662 1.68942 1.17317
254 1 25.3596 7.2073 5.76803
196 1 18.02 3.60874 0.102147
738 1 22.0793 1.19631 2.95357
943 1 18.6419 6.47091 3.77179
565 1 18.7162 0.161698 7.97568
816 1 19.5471 1.26341 0.572348
489 1 25.8502 2.49138 2.78086
394 1 19.68 2.51295 2.86929
529 1 21.0061 7.93367 2.94852
647 1 21.235 4.66349 4.30832
637 1 21.2174 6.57113 7.61432
198 1 18.6574 8.17292 1.63676
771 1 18.3148 6.37167 7.17039
822 1 25.1065 1.25339 6.49732
622 1 21.7679 2.97104 0.960905
368 1 25.078 3.99061 0.410746
309 1 21.8027 3.8994 7.21041
315 1 19.273 8.78678 5.71065
292 1 23.7889 2.67983 4.83625
638 1 22.7615 5.23359 1.91351
525 1 24.0043 2.70192 8.77541
843 1 23.7361 8.17383 8.15261
723 1 20.6807 1.96968 5.3726
556 1 22.7681 6.40347 5.19706
70 1 24.2733 5.23292 7.56239
671 1 25.0999 6.48355 1.57063
679 1 23.9246 8.51104 3.29151
85 1 19.9036 5.01979 1.94033
217 1 21.4173 7.25413 0.271173
999 1 26.1426 0.0623592 0.903122
163 1 0.848271 11.2146 0.703533
876 1 4.19085 10.7472 0.661478
611 1 6.80689 9.69081 1.71302
351 1 2.00933 9.27385 2.12637
814 1 4.34957 10.043 8.75847
677 1 2.56017 14.6314 8.90629
226 1 6.07304 16.8142 6.15156
579 1 1.13184 13.9564 6.59977
849 1 4.6407 13.5546 1.81909
111 1 2.39176 16.9315 1.85456
804 1 3.43776 15.1775 6.49115
422 1 7.26831 17.4047 8.41149
537 1 4.31405 15.9306 3.97083
557 1 8.52253 11.3128 3.47613
372 1 7.43289 16.2862 0.469851
604 1 8.48574 12.396 6.56877
830 1 0.670958 11.5191 4.4554
75 1 4.65623 10.7249 3.60311
174 1 6.26627 13.8473 6.22316
631 1 8.08781 15.3756 4.39158
155 1 8.21456 15.1961 7.44054
423 1 6.67906 17.5166 2.97963
513 1 8.86931 17.6424 6.08282
747 1 0.0755152 16.6574 2.81337
719 1 0.378193 16.4106 7.69502
402 1 4.32977 12.2826 7.58947
201 1 6.81718 12.1931 0.613163
736 1 2.48591 12.1111 2.42964
750 1 8.31988 13.9168 1.77197
802 1 5.56959 14.7203 8.58258
902 1 3.08839 10.0726 6.17935
761 1 1.85497 11.8472 7.94524
707 1 3.14757 12.6018 5.12788
701 1 1.79957 14.7554 3.88484
361 1 0.349181 9.40653 6.84366
810 1 0.275732 14.2215 1.36601
223 1 6.6423 13.1481 3.70205
589 1 0.0686703 9.02969 4.20973
11 1 5.02264 16.1162 1.05065
71 1 6.27412 11.3282 5.98934
743 1 9.54551 16.0865 2.49684
471 1 11.8788 11.5374 6.85893
744 1 12.8947 10.9419 1.02267
734 1 9.95342 13.2175 4.35937
847 1 11.4397 16.0023 0.641444
180 1 16.735 12.2446 8.54951
234 1 10.0813 11.6071 1.22259
72 1 13.9276 17.0468 6.29614
516 1 15.8785 9.58369 8.84734
667 1 17.0185 16.7652 2.09663
408 1 15.608 10.8474 2.71607
911 1 11.6825 13.8843 1.93059
432 1 10.0408 10.2627 5.6553
543 1 11.4983 11.202 3.30691
299 1 14.4471 11.6477 7.37021
45 1 15.4001 12.2522 0.097583
884 1 13.6903 8.9945 7.37762
293 1 16.5977 16.4683 6.81627
690 1 16.7315 12.4655 4.73896
988 1 14.2667 11.7859 4.69004
219 1 13.109 14.3463 7.9359
288 1 14.1873 13.6624 2.88012
55 1 15.6006 13.9951 6.53607
663 1 12.6688 14.1364 5.12722
833 1 10.8969 16.3573 4.84213
31 1 11.1182 16.5479 7.81882
395 1 12.6839 16.5133 2.95704
720 1 15.8096 15.4988 4.37447
215 1 14.0984 9.28484 4.77446
106 1 14.7888 16.2742 0.930035
546 1 10.5893 9.82436 8.52217
258 1 17.2381 10.6872 6.4664
278 1 17.7244 10.6458 0.723818
863 1 16.66 14.4109 1.47016
713 1 14.7157 16.6916 8.7689
334 1 10.7816 14.0448 6.8268
564 1 21.4254 11.4317 8.5576
820 1 19.1541 13.969 8.85344
878 1 19.415 16.4676 7.69006
609 1 19.498 17.5826 0.243535
152 1 18.8158 9.59547 8.38891
384 1 24.9431 16.227 0.705828
544 1 25.4729 16.7487 5.71946
213 1 18.2373 14.3405 6.18388
352 1 18.1662 17.435 4.97854
766 1 19.138 12.6745 1.97486
4 1 26.0191 14.081 3.72786
584 1 21.9345 17.2355 6.58649
869 1 23.2541 9.87306 1.12288
58 1 21.3286 9.36958 7.21308
874 1 25.7819 9.30455 1.675
860 1 21.3793 14.4178 7.22697
48 1 21.4304 11.5679 2.37467
182 1 18.9296 10.4001 3.47501
263 1 20.9854 13.1105 4.83158
929 1 18.2409 14.7291 3.59489
706 1 25.1589 12.6087 0.643156
259 1 19.4264 11.958 7.12218
56 1 24.475 9.77345 5.67588
858 1 25.3273 10.8166 8.17913
508 1 21.8531 10.1847 4.68739
343 1 23.9099 14.9759 6.67165
740 1 21.9418 17.762 2.03278
273 1 20.7987 14.9169 2.63172
337 1 23.3402 14.5146 1.84734
827 1 25.6688 12.303 6.24024
230 1 23.2781 16.129 4.15815
819 1 20.4592 15.7524 5.11941
562 1 22.8766 12.0772 6.59838
629 1 25.0873 11.1691 3.39717
503 1 23.6196 13.1215 4.16787
367 1 20.5461 10.081 0.671421
255 1 6.68485 18.8603 0.444281
920 1 2.43114 17.9356 8.3428
50 1 0.189891 25.2636 8.05921
630 1 3.49845 21.1585 1.42378
396 1 4.3527 23.18 2.8005
577 1 1.50868 23.6046 2.06608
441 1 7.80566 24.0627 1.0594
209 1 7.15068 22.9634 3.83433
662 1 5.40813 24.5607 5.40715
400 1 7.1068 20.3243 3.22394
574 1 4.55217 19.6464 8.49171
791 1 3.1204 23.7113 8.11251
573 1 2.11114 20.9521 6.92592
147 1 3.1068 25.7612 2.78806
642 1 4.609 21.796 7.06925
124 1 5.35968 25.7953 0.924064
765 1 6.8479 19.5157 5.77216
301 1 4.19882 18.948 2.932
507 1 2.56296 23.0578 4.9924
144 1 0.93781 19.2204 1.69078
41 1 2.48764 26.118 6.24982
954 1 7.14153 22.2492 6.46515
23 1 4.99323 21.1362 4.49931
38 1 7.24804 26.0139 3.08275
74 1 0.214318 22.0383 8.04937
32 1 7.35226 20.1985 8.66826
166 1 8.30198 25.0603 5.64051
177 1 3.85526 18.3957 0.0285297
68 1 2.01007 25.9013 0.424788
837 1 0.275359 25.1789 3.89174
125 1 1.70223 20.7569 3.94314
597 1 4.11845 19.0999 5.94318
930 1 6.12016 25.2861 7.78817
751 1 6.31354 21.6017 1.02656
664 1 3.70006 26.4808 8.72265
613 1 1.78387 18.1816 5.27545
520 1 13.1088 24.5336 0.404708
108 1 15.5851 18.8443 0.142931
940 1 9.81889 26.3662 4.08934
257 1 11.9525 25.2387 5.13324
335 1 13.0569 18.1687 0.659105
466 1 14.9106 18.0085 3.33314
615 1 10.2046 25.7187 1.1435
659 1 10.1867 23.9306 3.12678
83 1 9.86293 21.062 3.33411
877 1 17.3191 19.9759 2.12277
673 1 9.86356 20.6455 6.16894
515 1 15.7262 23.6461 0.766198
233 1 14.3103 19.5535 7.16125
116 1 14.0925 20.3203 4.74783
835 1 11.9603 21.0771 7.82392
487 1 13.6936 23.1925 3.40961
730 1 11.6507 22.1108 1.70095
251 1 14.1698 20.881 1.87639
539 1 15.0399 24.5272 5.17803
777 1 14.8678 26.6468 1.3257
951 1 16.1796 21.8779 4.06416
431 1 11.9538 21.6734 4.98167
378 1 13.4402 22.8965 6.69819
130 1 12.0178 18.8921 5.64537
532 1 12.7163 26.1278 2.30471
760 1 15.9586 22.1852 7.00768
753 1 16.7243 24.9536 7.64986
277 1 16.5578 19.4791 5.30125
424 1 9.11945 21.8392 0.974924
66 1 11.5649 19.0406 2.65135
855 1 12.016 25.0087 8.2091
79 1 10.4923 23.324 6.66341
206 1 9.07321 18.5447 3.42549
22 1 16.5519 25.0251 3.07748
889 1 9.61578 18.5934 0.610515
412 1 17.1947 18.643 8.13629
418 1 8.95896 24.3279 8.42399
313 1 14.3967 26.5117 6.96117
371 1 17.7953 26.7482 5.31467
965 1 24.6503 23.7413 8.48081
792 1 18.0943 22.3914 1.8242
538 1 18.024 23.8167 5.71221
669 1 17.9289 25.3898 0.84412
388 1 26.7579 22.5713 5.10335
518 1 22.6356 20.294 1.32639
645 1 19.0009 20.9249 4.23726
534 1 19.7035 23.6083 3.33939
685 1 23.5676 18.8672 5.23492
672 1 24.6055 23.7233 4.15296
187 1 19.7864 23.7181 0.306738
639 1 22.3853 25.0271 4.37128
561 1 24.0184 21.0372 3.53791
419 1 21.6737 22.2861 5.17677
181 1 25.0369 25.1286 6.33777
786 1 22.127 22.8233 2.30348
842 1 19.1339 21.7732 6.67257
105 1 26.205 21.9123 2.66614
971 1 26.0444 19.7886 4.29692
485 1 23.684 18.4085 8.05069
702 1 19.5194 23.8909 8.38728
143 1 19.8314 26.5986 3.3043
190 1 21.4662 25.5171 1.34199
298 1 24.5186 21.7939 6.52045
91 1 22.0168 20.5204 7.17884
207 1 24.8964 26.7053 4.34078
353 1 19.5465 17.8799 2.98798
453 1 22.1141 23.443 7.50884
823 1 20.2793 25.6172 6.15867
246 1 24.9825 18.7405 2.08287
411 1 24.415 25.1922 1.92192
387 1 24.4559 22.6113 0.890897
797 1 21.6462 19.9028 3.89965
908 1 19.9399 19.1492 6.1108
617 1 26.6279 19.1442 6.76049
331 1 20.1815 20.7718 1.60574
610 1 1.53281 0.896938 17.4182
961 1 6.0906 0.526704 15.9787
848 1 0.423039 1.56924 14.8109
115 1 1.68859 6.99849 10.8965
904 1 0.961071 6.75791 15.8601
742 1 1.21399 5.44854 12.9669
80 1 3.90454 2.46402 9.22441
852 1 1.86156 1.59528 10.4433
366 1 0.688065 0.198817 12.3986
873 1 6.2191 2.97882 17.1967
693 1 8.50477 8.50286 10.4659
764 1 2.89597 7.92656 14.4936
118 1 3.76869 0.0935966 11.7677
654 1 2.17191 2.84289 13.1185
668 1 5.92033 0.471569 10.1749
57 1 3.43236 7.12437 17.4283
44 1 2.38586 4.377 10.34
780 1 7.97439 5.37157 9.78503
924 1 4.67502 3.13113 11.9462
624 1 5.82498 3.38115 14.5545
357 1 4.98452 5.09463 9.75736
950 1 8.52929 1.12079 10.5576
482 1 6.7686 3.16595 10.0032
759 1 3.54561 5.08137 15.6646
623 1 8.16847 3.70501 12.2702
296 1 3.99016 5.62211 12.8865
300 1 3.99055 1.33427 13.9125
484 1 8.41813 6.97175 14.1872
752 1 3.36886 2.41159 16.1148
587 1 0.261713 4.18071 15.9011
69 1 4.47511 7.44561 10.5945
479 1 5.41474 6.7753 15.0343
433 1 8.21587 4.64604 15.4342
731 1 6.62588 1.58028 12.9725
857 1 7.18394 8.07303 16.3979
541 1 6.3688 6.24528 12.7035
658 1 8.55518 1.91222 15.2104
305 1 16.8375 5.80615 14.2317
509 1 13.8913 4.88713 9.9266
212 1 10.955 6.46382 14.2854
708 1 9.68838 1.39288 12.8845
841 1 12.0409 5.2222 12.1989
204 1 12.445 1.67789 13.6812
897 1 10.0943 8.53909 15.9566
1 1 16.586 0.568112 14.135
915 1 9.96036 5.89362 17.1204
948 1 13.6581 0.851034 9.51453
739 1 13.5505 5.27022 14.9417
291 1 9.66285 6.33107 11.5424
171 1 12.8262 0.913543 17.5904
633 1 10.5281 4.37509 9.9187
896 1 11.8252 3.46222 16.3773
697 1 16.9225 4.44416 11.1644
716 1 13.5651 7.58276 10.0518
523 1 15.9632 1.98413 11.4602
78 1 14.572 3.8192 12.7355
380 1 14.5255 4.21409 17.5059
732 1 11.7022 2.4052 10.9305
614 1 11.3666 8.2828 11.0258
253 1 15.24 8.28489 14.434
42 1 17.3689 8.80228 17.4712
142 1 11.0605 0.826295 15.5276
698 1 16.0315 1.5564 17.4548
894 1 15.456 6.91215 12.0233
712 1 16.1271 6.53423 16.7869
488 1 16.0676 6.7807 9.21983
36 1 13.1151 7.51346 13.3058
552 1 17.4103 2.82714 15.1646
598 1 14.614 2.64371 15.3178
392 1 12.7441 6.21079 17.2323
680 1 10.6471 3.73095 14.0623
381 1 24.0797 7.75362 14.5562
500 1 22.2647 3.47311 13.9486
882 1 19.0617 5.07927 9.48598
586 1 20.8273 0.442315 11.9273
807 1 25.0267 5.35947 13.6864
477 1 18.547 2.13237 10.1375
167 1 21.4217 0.601975 16.5183
591 1 18.1496 0.339477 12.1667
229 1 26.5171 7.94275 13.1369
328 1 23.2576 3.62859 11.5092
551 1 18.4525 7.45966 15.157
895 1 20.2066 6.9679 17.0099
157 1 24.4619 2.97054 15.6543
61 1 23.1058 0.981209 14.4788
138 1 22.1671 5.94839 12.5015
559 1 24.6224 5.98245 10.5878
270 1 21.291 7.72514 10.2606
612 1 23.7005 0.635772 11.5971
978 1 18.8466 6.30637 12.631
467 1 24.2911 8.08191 12.0588
84 1 20.6077 3.59512 11.4496
348 1 25.1283 2.56728 12.9424
994 1 21.7671 3.67756 16.8507
59 1 18.169 7.879 10.4381
342 1 19.5942 4.98566 15.1857
826 1 21.0666 7.9265 14.0635
446 1 18.6212 3.51347 12.9344
346 1 26.1358 1.10732 10.3353
864 1 26.4231 4.28675 11.2506
359 1 25.3212 8.00049 17.7026
12 1 22.2363 5.77118 15.2864
989 1 22.8138 8.19167 16.8642
347 1 24.6359 5.53673 16.4429
670 1 20.3128 2.43084 15.1791
979 1 21.4625 1.65598 9.49241
530 1 22.0769 4.85489 9.49885
919 1 26.1352 2.37145 17.8265
386 1 18.7706 0.34822 15.806
62 1 18.7835 3.43535 17.5781
683 1 3.60185 11.841 17.3212
825 1 0.614007 10.7994 17.8267
220 1 2.89766 16.7894 13.6813
439 1 2.06222 16.7117 10.813
173 1 8.5905 17.2548 17.391
918 1 4.86969 8.98597 13.1413
486 1 5.05399 16.3351 15.7591
688 1 4.24758 15.0535 11.3505
838 1 6.77914 12.071 17.7413
627 1 5.24559 13.8985 16.8311
511 1 7.55306 15.1548 16.0403
583 1 7.36547 11.3356 9.04872
221 1 2.48139 9.50829 16.6034
960 1 3.15167 9.52647 11.2689
451 1 1.63576 11.6982 10.493
636 1 5.20385 17.2475 12.3279
321 1 1.01941 14.0123 11.3893
595 1 6.79615 12.4554 14.6057
865 1 5.07598 14.2984 13.6054
107 1 5.54047 10.0272 15.5567
689 1 7.22998 15.6021 11.3175
131 1 8.24437 14.4581 13.4118
605 1 5.08999 17.1487 9.4513
208 1 2.97873 13.0702 12.6307
519 1 1.23225 14.154 17.6442
981 1 7.58563 12.5179 11.5974
262 1 0.893148 10.4676 12.7938
373 1 4.98756 12.4401 10.2217
592 1 2.95594 10.7504 14.2779
757 1 6.06345 9.7948 10.7197
161 1 1.35518 12.4046 15.6496
113 1 0.48403 15.2579 14.0892
554 1 3.14953 14.5035 15.4373
237 1 1.9768 16.6413 16.3726
972 1 5.18005 11.5183 12.9181
460 1 7.39252 9.42199 12.8271
790 1 8.32121 10.5576 15.7533
109 1 8.53372 16.9967 13.4152
528 1 8.27329 13.7197 9.56765
758 1 11.1189 10.5741 17.6884
836 1 12.9655 14.9877 15.8323
247 1 14.1089 13.3061 13.3797
986 1 15.1567 15.0658 11.1739
151 1 10.5579 15.3905 17.2285
985 1 17.1321 12.0144 17.0737
917 1 15.2862 16.9078 16.5801
593 1 9.51194 11.9936 13.4637
770 1 12.2559 10.8942 11.9618
626 1 15.0661 11.9669 10.4466
568 1 11.8032 11.8255 14.8239
502 1 10.5932 12.7187 9.3471
469 1 16.8486 15.1627 9.24533
540 1 12.8128 10.6937 9.32174
99 1 9.45756 12.9556 16.4841
834 1 12.7507 9.01822 15.4958
238 1 10.7885 9.32426 13.4739
875 1 10.2775 13.995 11.749
768 1 9.49379 15.8343 10.0852
322 1 9.74613 10.4062 11.237
390 1 17.2152 10.3704 11.0913
33 1 14.6461 9.97276 17.3439
122 1 12.2585 16.1234 10.2563
795 1 15.861 14.4285 15.2857
578 1 10.7236 14.464 14.6725
640 1 15.0516 16.6092 13.7318
983 1 16.9832 12.1486 13.3195
655 1 17.1413 9.89609 14.5708
332 1 12.9234 13.2703 10.9059
65 1 17.3782 13.6661 11.0423
499 1 14.3475 17.4941 11.3048
135 1 17.2196 15.5892 12.8541
67 1 16.802 17.7111 10.3808
319 1 10.9269 17.7286 15.2855
588 1 14.599 12.949 17.0122
397 1 12.336 15.8754 12.9677
510 1 14.6308 9.48495 11.6773
995 1 14.5554 10.8756 14.9197
945 1 26.5779 13.5867 8.95581
987 1 22.4021 16.4978 16.792
303 1 25.2452 11.6492 11.0205
77 1 22.0677 9.5412 12.4361
621 1 23.7124 14.1092 16.9848
205 1 23.9822 16.0961 13.6259
883 1 26.1999 9.82585 15.4222
788 1 24.638 10.487 13.3127
465 1 26.0139 15.8557 10.1135
462 1 22.0445 15.5056 11.9194
939 1 23.3122 10.0491 10.2512
555 1 24.5854 11.9789 15.545
936 1 18.0537 16.303 15.4542
327 1 20.0501 15.0681 16.8142
355 1 20.4142 11.1134 14.1018
769 1 23.9395 17.3945 10.7548
7 1 21.4824 12.3383 16.1296
341 1 22.6651 10.0767 15.205
448 1 20.0497 16.1277 13.6274
798 1 24.6487 14.1482 11.5219
2 1 21.7891 14.2955 14.4408
136 1 21.2214 13.2466 10.302
996 1 18.9702 9.07713 12.7776
369 1 19.6141 13.3634 12.6616
203 1 22.5465 12.245 12.4457
382 1 19.2737 11.6047 10.4514
409 1 23.7792 12.8434 9.04548
129 1 26.0616 12.775 13.3411
261 1 22.7651 15.5834 9.251
101 1 19.7577 9.87141 16.1583
189 1 25.5342 16.018 16.533
281 1 26.2642 17.5393 12.3561
114 1 26.5403 9.32508 10.0648
818 1 19.8016 16.4655 10.5548
449 1 18.6711 13.3396 15.4527
906 1 5.75748 23.4703 17.6967
317 1 0.761935 18.7165 14.8083
443 1 3.94509 18.4242 17.6779
119 1 0.920304 19.9766 12.2667
650 1 5.93173 22.6924 12.3477
575 1 1.67103 21.3559 14.7026
374 1 1.69247 20.4516 9.48114
40 1 0.937135 24.605 17.0486
60 1 4.74942 24.2357 10.4975
197 1 5.26075 21.7179 14.7332
286 1 3.31015 21.1161 16.8693
92 1 3.76623 21.307 12.5685
601 1 6.69421 19.7772 13.0215
846 1 6.72752 24.022 15.0962
721 1 3.70743 19.0652 14.8936
458 1 6.51801 18.4796 15.596
49 1 3.2087 23.3249 15.3859
799 1 2.42678 22.5547 10.775
681 1 3.2596 24.1568 12.8369
774 1 3.20722 18.8542 11.477
459 1 0.392066 20.7074 17.2535
202 1 1.85249 25.1686 10.471
326 1 5.17962 21.0118 10.4822
644 1 0.375145 23.8598 12.9028
886 1 1.80815 25.7954 14.4046
146 1 8.19365 22.5312 16.7714
324 1 7.66251 18.3338 10.8286
243 1 8.40789 22.2901 13.7953
699 1 3.4771 25.6076 16.6255
935 1 7.54901 25.3316 10.9074
13 1 5.50558 25.7164 13.3522
779 1 6.97478 22.619 9.79143
862 1 5.97318 20.6883 17.6138
967 1 8.37326 25.6871 13.3424
959 1 8.42092 21.1064 11.325
250 1 8.73423 25.9478 15.9891
531 1 16.3912 23.8398 16.6021
756 1 14.3387 22.3688 9.18363
496 1 12.5635 18.4481 9.10844
450 1 10.7147 26.3551 10.4788
304 1 9.78845 18.6805 8.93754
86 1 13.3153 23.492 16.8294
94 1 17.0715 20.8627 9.80886
437 1 14.4625 24.9303 9.778
504 1 14.4864 19.798 9.74859
674 1 11.8344 21.2123 17.8005
421 1 9.40294 19.4208 13.4026
427 1 13.0701 21.1078 15.4464
887 1 9.65476 21.9467 9.05408
318 1 13.1581 23.7257 14.0277
793 1 15.3529 24.0586 12.3048
9 1 9.72724 23.5265 11.5084
652 1 14.1037 21.3549 11.8305
193 1 12.2715 24.0968 10.981
120 1 11.1852 21.8824 13.3539
284 1 10.6772 24.0683 14.9439
455 1 14.102 26.7571 12.1586
30 1 17.2864 20.5162 15.4541
52 1 17.1895 23.7532 9.9454
581 1 13.1948 26.1767 15.271
990 1 16.9558 26.3178 10.0586
95 1 15.7661 22.5145 14.5416
285 1 11.6431 26.0215 13.154
832 1 11.4978 20.2978 10.7023
25 1 12.9408 18.6557 13.2599
524 1 16.0549 19.2814 12.5585
879 1 15.2866 19.0588 15.0063
782 1 16.8755 22.0121 12.2014
310 1 9.95113 20.6595 15.7788
937 1 17.1168 24.78 14.1672
700 1 13.0311 18.5784 16.8558
968 1 17.6412 26.2322 17.7637
231 1 10.5556 17.963 11.523
123 1 24.2328 26.6561 8.9479
558 1 26.3696 22.4893 10.6494
704 1 19.9714 25.7401 13.8982
695 1 18.6719 17.9683 12.7021
975 1 25.9335 26.4767 16.4532
641 1 19.5039 25.7592 10.0641
794 1 21.5151 22.7303 13.417
566 1 25.6585 25.1185 10.8982
490 1 19.9791 19.8516 14.4237
733 1 20.071 20.9141 8.94216
447 1 22.3774 21.1546 10.7189
39 1 19.1718 22.6294 14.4141
815 1 21.5393 19.2791 12.1608
266 1 25.088 25.5689 13.8323
211 1 22.1789 19.9825 16.3598
550 1 21.4902 18.0492 9.35114
267 1 24.2239 23.47 12.6048
375 1 24.6148 21.1709 15.7562
976 1 22.6215 25.1677 12.0918
34 1 21.876 17.8952 14.4444
271 1 21.3053 23.4811 10.5077
861 1 26.6457 18.5125 9.71386
880 1 19.067 18.8548 10.2214
982 1 24.2766 18.2166 15.8742
898 1 22.0614 25.6082 9.18704
170 1 19.6017 24.466 16.2418
249 1 24.7721 20.589 9.02671
98 1 26.0532 23.4112 15.4183
776 1 19.1589 23.8639 11.9314
493 1 26.0728 21.5115 13.6364
93 1 20.018 18.0003 16.2402
336 1 19.4046 21.3387 11.8231
436 1 25.2153 20.3599 11.3148
729 1 23.4469 20.018 13.6294
635 1 19.7199 21.1715 16.6611
227 1 22.8414 25.1967 15.1688
946 1 22.0434 22.6723 15.9643
252 1 6.32731 0.709174 25.5867
709 1 5.4835 5.4779 26.7562
535 1 2.94419 6.21043 26.2219
571 1 2.33048 0.226234 24.0017
260 1 7.497 7.86349 23.6977
813 1 1.21491 7.93706 18.4791
922 1 5.71821 8.5689 21.7269
888 1 2.0386 3.25647 25.0642
859 1 3.80082 1.28286 26.1322
96 1 3.47568 7.95559 20.351
406 1 3.62576 2.1358 18.8926
927 1 7.29811 7.44075 26.331
905 1 7.89003 4.88046 25.5139
800 1 1.52769 6.46639 21.0542
533 1 1.29042 1.46524 20.3138
657 1 0.0171743 3.94526 20.3271
944 1 0.965339 4.62471 22.8924
264 1 4.98499 1.0979 20.9427
362 1 1.75147 3.90664 18.0558
910 1 5.60268 2.99136 24.931
457 1 6.2063 3.30761 19.9832
501 1 3.67927 2.31536 22.7745
599 1 5.08414 7.09867 24.4492
76 1 2.28164 7.5649 23.6347
473 1 2.63272 3.8835 21.0878
330 1 6.5177 5.14102 23.1829
762 1 4.76239 5.9816 21.4461
283 1 3.69948 4.64135 23.798
398 1 7.95856 1.06129 18.3592
870 1 6.67002 2.2825 22.7233
783 1 7.58388 5.16305 18.7237
294 1 4.73247 4.92634 18.5199
787 1 7.86954 6.82798 21.0171
651 1 6.15874 7.22604 18.6391
228 1 8.53369 2.9343 20.6393
244 1 0.318792 5.77671 25.8291
498 1 0.199694 1.98386 23.0497
28 1 16.8298 4.61726 24.5681
47 1 11.9502 1.05419 20.8361
696 1 10.3992 0.485198 18.2533
616 1 12.3691 8.17121 26.7064
829 1 9.38759 0.57134 25.079
643 1 9.88581 8.19892 19.0233
195 1 9.83638 3.09996 17.9926
956 1 17.4454 2.74546 21.9454
323 1 12.4828 8.54663 19.0587
102 1 14.4562 0.911157 23.271
831 1 9.78569 0.825622 22.5645
969 1 16.5613 4.33763 19.607
854 1 9.13102 3.24942 23.6989
785 1 10.966 3.2553 21.6975
492 1 9.87825 7.91373 25.5316
468 1 10.1939 3.01661 26.0662
236 1 14.5614 8.57188 24.7016
602 1 13.9864 7.92932 21.302
722 1 15.9712 7.17188 19.9873
191 1 14.7262 6.16082 23.1157
694 1 11.8665 1.92748 24.0991
909 1 14.3012 6.05078 25.6118
145 1 11.5842 5.25052 25.7415
666 1 15.3682 1.93859 19.8863
521 1 17.1655 7.84032 25.4732
784 1 13.5882 5.37394 19.8373
214 1 14.2826 3.475 24.7748
590 1 12.5717 3.15411 19.2339
18 1 16.9983 5.59863 21.7343
245 1 10.1086 5.42626 19.6378
186 1 16.4976 8.72322 22.8133
82 1 12.9891 1.86397 26.6326
377 1 9.52612 5.60906 22.5037
463 1 11.3584 7.59123 21.2741
17 1 12.2337 7.34395 24.0505
168 1 12.3603 4.84357 23.0231
360 1 17.8017 2.08147 24.5084
10 1 14.5678 3.74171 21.7459
811 1 16.6 1.29751 26.5108
222 1 23.4007 1.93512 24.5301
169 1 25.1687 4.26044 24.3996
164 1 23.348 1.95051 18.1071
907 1 20.6699 0.855161 19.8549
684 1 24.2113 4.0789 19.4593
646 1 23.3015 8.52508 19.8203
16 1 22.5419 5.99017 18.4926
363 1 18.8175 7.28371 23.3233
941 1 22.5365 5.67509 21.046
376 1 21.2255 3.61806 19.449
51 1 20.4067 3.78031 25.7772
928 1 20.9016 6.32148 24.5585
947 1 22.6446 0.227359 26.2825
150 1 24.5035 8.69038 22.1344
491 1 18.9633 6.19809 26.22
481 1 25.0912 0.804942 20.7862
871 1 26.303 2.24727 25.586
851 1 22.8807 4.94946 25.8137
548 1 19.1388 4.36479 23.4529
81 1 23.7554 6.21156 23.3934
426 1 24.8122 7.66248 25.9119
567 1 19.9302 4.96443 21.0303
295 1 20.0578 2.39277 21.7694
349 1 24.5921 4.10403 21.9317
653 1 20.3954 1.48174 24.4508
178 1 26.6028 5.67029 18.5533
127 1 21.6673 7.79378 22.4455
866 1 21.8037 4.18784 23.2547
434 1 20.8209 8.78932 18.6495
312 1 18.0025 1.3217 19.4802
344 1 22.7931 2.07111 21.3936
913 1 23.0588 8.80287 24.4057
64 1 26.2699 6.94126 23.5167
154 1 25.4418 6.47125 21.0773
134 1 18.5782 5.81585 18.9141
241 1 18.3848 7.92155 20.6447
932 1 0.768107 17.7342 22.1737
748 1 1.75976 17.5273 24.855
290 1 4.42999 17.6021 20.5264
399 1 0.703877 15.5273 20.2709
429 1 7.07714 16.5064 24.5733
806 1 5.42773 11.9801 24.8486
914 1 6.06366 9.64657 25.6216
962 1 6.25438 14.0931 22.9684
297 1 7.17393 10.6671 23.2518
868 1 2.68613 15.2123 26.4092
413 1 3.34095 15.3972 21.4904
452 1 3.52916 15.7415 18.9029
280 1 6.21575 14.5265 25.8856
942 1 4.54209 11.8485 22.111
121 1 4.36943 16.7074 23.8164
275 1 6.15448 10.7365 20.3244
735 1 2.07168 10.3723 19.9224
218 1 3.86846 14.1281 23.9942
183 1 5.26707 13.5716 19.7832
133 1 2.93058 9.79476 25.3159
608 1 2.7216 12.6295 26.1118
216 1 2.50028 13.0325 19.7242
963 1 6.84627 15.9595 21.3446
21 1 7.97288 12.5945 21.3147
132 1 1.23655 14.4599 23.0478
35 1 8.10053 12.7201 24.8212
417 1 8.48401 10.5907 26.0591
103 1 8.51728 9.42586 21.0952
705 1 3.13213 9.67249 22.4369
162 1 7.99611 14.501 18.7993
755 1 0.117017 11.9803 20.6614
8 1 1.5209 11.7234 23.2692
240 1 0.434514 9.45401 24.5138
660 1 0.646513 9.40655 21.9544
364 1 8.0284 10.0205 18.423
648 1 6.05493 16.6396 18.4686
955 1 4.68469 9.43034 18.2862
754 1 12.0526 16.2157 20.9756
494 1 13.1003 17.0633 24.8034
569 1 14.4051 14.9768 25.4224
749 1 9.34414 12.3122 19.0037
576 1 17.7041 15.9339 26.1046
726 1 16.7017 10.5581 24.6965
966 1 13.0253 16.2724 18.3919
97 1 16.186 16.2035 23.8627
279 1 13.8903 11.1258 24.7794
407 1 11.04 10.4108 20.4571
678 1 9.77379 13.8721 26.4369
992 1 12.6562 12.9459 26.2379
128 1 12.8875 12.3969 22.5681
727 1 13.7394 14.2916 20.1253
156 1 9.38062 16.3193 20.5833
175 1 17.4971 17.6474 21.9415
148 1 11.3218 14.77 24.1825
949 1 9.03153 14.8939 22.7824
104 1 9.70498 17.0815 25.1235
853 1 13.8544 15.2545 22.6274
365 1 16.193 13.2967 24.4103
572 1 15.5811 11.3269 22.1889
385 1 10.9168 13.3826 21.0092
235 1 10.2717 12.1165 23.5351
665 1 12.31 9.92679 22.7623
425 1 16.1973 12.7678 19.7758
403 1 16.7458 14.7037 17.948
925 1 16.3724 14.6191 21.8305
741 1 13.6523 11.459 20.3342
428 1 11.9145 13.0192 17.8609
158 1 15.4224 16.6041 20.2798
472 1 9.80355 9.34481 23.1556
899 1 11.3908 10.4019 25.4573
957 1 15.646 9.91781 19.7385
692 1 26.6691 15.6864 25.4374
512 1 18.4609 12.4602 25.6348
184 1 24.9304 15.9695 19.5662
265 1 18.3484 10.236 22.5043
316 1 20.2525 9.54855 24.5891
596 1 25.493 16.0537 22.391
456 1 25.7411 11.0904 23.1395
964 1 18.3043 10.9179 19.0291
563 1 18.3743 14.6512 23.6996
916 1 22.9813 11.5651 23.3275
476 1 25.4707 13.1681 18.6863
225 1 25.0926 13.3582 22.4701
383 1 21.7218 12.1413 18.8949
632 1 26.6083 12.6227 25.2663
63 1 24.1378 17.2142 24.8119
547 1 23.0894 15.8576 21.738
938 1 18.644 12.9573 21.4103
311 1 18.2365 15.5592 19.976
542 1 22.6906 14.4238 19.3316
329 1 22.1426 13.5588 21.997
438 1 19.3094 13.2598 18.9129
464 1 21.1768 13.8974 24.4624
54 1 20.6066 16.9691 19.1039
634 1 23.99 10.7537 18.0483
302 1 24.3642 11.1351 20.942
470 1 20.1453 15.2936 22.1668
998 1 20.3107 11.775 23.1158
333 1 23.9939 14.0406 25.2215
153 1 20.0524 17.2199 24.3401
687 1 21.934 11.9237 26.4011
606 1 25.9821 9.42383 19.7778
891 1 21.2419 10.2601 21.0201
6 1 24.2478 10.8292 25.3448
824 1 20.0138 14.6062 26.5688
714 1 22.2172 16.1982 26.4924
958 1 7.24782 22.2116 19.6702
789 1 8.30014 24.7929 18.4082
625 1 7.41363 18.2166 20.1696
570 1 5.26896 20.1432 20.3417
900 1 2.8322 23.4512 18.4069
934 1 1.68924 24.545 24.385
435 1 3.9708 19.3541 24.3736
112 1 5.72197 24.0753 23.5652
812 1 7.89343 23.9144 21.8414
339 1 8.70942 20.9175 21.8601
268 1 2.53943 22.9482 26.5717
420 1 5.387 26.5365 18.3846
46 1 0.751308 25.9705 21.9679
582 1 5.33141 24.6958 20.3479
475 1 5.07166 23.5434 26.2534
308 1 3.66789 22.1881 24.0739
993 1 5.88549 21.2093 25.2124
3 1 7.38249 26.4862 20.6464
772 1 0.780948 22.9172 20.6631
478 1 6.33889 18.4374 22.7513
526 1 7.3885 26.1361 23.2368
200 1 8.09319 19.1957 24.6014
926 1 8.01397 22.5924 24.6615
199 1 7.5917 25.057 25.4672
725 1 0.0377507 26.2817 19.0514
808 1 0.374727 19.6092 24.0942
159 1 1.84144 18.2379 19.9024
885 1 2.62863 26.0905 19.3923
840 1 5.93915 21.4893 22.5539
974 1 4.87562 26.4738 23.5701
661 1 0.697591 22.1111 23.3858
445 1 2.52077 20.7187 22.1293
997 1 1.60612 20.2128 26.1273
933 1 2.99074 20.6587 19.4792
73 1 3.25027 25.036 21.8239
710 1 4.01761 22.5478 21.2439
248 1 12.1259 19.5837 23.2341
269 1 10.2137 23.0745 18.3308
126 1 10.331 25.3107 20.6073
867 1 13.1415 21.554 24.995
682 1 11.905 23.3979 22.1895
545 1 10.9303 21.3719 20.4146
194 1 11.9877 26.2299 25.7435
676 1 12.8925 24.0588 24.6301
26 1 10.7038 21.9997 24.1745
340 1 14.9766 19.3564 24.211
416 1 15.7185 21.5268 26.0157
890 1 14.7011 23.4051 22.8809
29 1 9.78018 24.6833 23.8821
444 1 10.4645 18.3248 19.172
391 1 17.4559 18.6384 25.0858
256 1 9.31799 18.3776 22.4405
19 1 13.7229 21.1083 21.8417
901 1 13.9806 18.0349 21.9781
536 1 12.8471 23.113 19.3894
483 1 8.94918 20.4898 18.2309
505 1 16.1775 20.461 20.4336
495 1 13.8052 25.4725 20.5151
141 1 15.0866 25.3816 25.201
354 1 17.4254 21.6768 18.221
185 1 11.6244 19.8817 26.0113
415 1 15.424 18.7121 18.4588
921 1 10.4828 23.3975 26.4094
179 1 12.6895 19.1954 19.9985
461 1 14.7964 25.7942 17.9798
287 1 11.7122 25.3073 17.854
560 1 15.8766 23.6694 19.9129
325 1 16.3629 26.4234 21.7889
165 1 12.3077 26.2543 23.0553
952 1 17.115 21.0915 23.3472
43 1 17.7763 23.579 21.9833
839 1 14.6897 21.2916 17.9337
881 1 17.3424 25.9515 24.5186
405 1 25.7069 22.8979 18.1174
549 1 26.4658 18.259 26.2634
117 1 26.6621 24.0928 26.5207
778 1 26.2096 20.5521 19.6423
379 1 23.9773 26.2022 18.5603
973 1 18.0678 23.1272 24.7122
389 1 26.1735 18.1637 18.1614
404 1 18.0419 18.3846 18.9893
618 1 23.1675 24.0024 18.1149
717 1 20.2081 25.862 25.3912
821 1 24.8167 19.2614 22.8635
628 1 25.1095 18.184 20.6098
53 1 23.2123 23.9696 23.3719
24 1 23.1599 18.0571 18.8443
370 1 19.0033 26.7552 22.6669
703 1 20.7296 19.6047 18.5355
691 1 18.0989 20.7708 26.3014
149 1 22.8087 21.1723 23.5514
15 1 23.0726 26.0478 21.2276
745 1 20.2861 24.993 20.8987
440 1 22.3504 23.214 26.1788
514 1 21.3743 19.02 25.7591
89 1 21.7203 26.2904 23.4458
356 1 20.5004 21.5394 25.4159
828 1 22.9548 19.7289 20.8871
350 1 23.9951 19.876 25.8698
480 1 25.3748 24.6612 21.0716
430 1 18.6803 23.8758 18.5454
242 1 23.8326 20.6631 18.3272
506 1 22.316 18.5536 23.2191
977 1 18.6985 21.3197 20.8082
619 1 26.0219 21.8927 25.3672
844 1 20.0762 18.2849 21.2606
953 1 20.1768 23.5427 23.4371
272 1 23.2871 23.132 20.4516
307 1 21.0399 22.5722 19.0528
594 1 25.9174 24.103 23.9759
746 1 20.8711 25.4126 18.3266
984 1 19.2824 19.5753 23.3965
442 1 24.0929 24.921 25.6778
649 1 25.0744 21.7086 21.8473
401 1 21.2286 21.7583 21.735
711 1 26.5326 26.4182 24.9907
803 1 24.7192 26.7428 23.1511
ITEM: TIMESTEP
51000
ITEM: NUMBER OF ATOMS
1000