LAMMPS (22 Jul 2025 - Update 2)
ERROR: Cannot use -kokkos on without KOKKOS installed (src/lammps.cpp:706)
