Pure Gallium structure at 150.0C

1000 atoms
1 atom types

0.0 26.7628766153 xlo xhi
0.0 26.7628766153 ylo yhi
0.0 26.7628766153 zlo zhi

Masses

1 69.723000  # Ga

Atoms  # atomic

1 1 10.0237709882 25.4438496789 19.5902635479
2 1 16.0218231473 4.1755076239 4.1748621004
3 1 1.5544845458 23.1813653165 16.0875668909
4 1 18.9500590343 0.5509002810 25.9575777014
5 1 22.2785596851 5.6828054197 4.8661591630
6 1 4.9084322679 8.1423976095 14.0439916329
7 1 11.5600912385 7.7941295459 16.3749435282
8 1 3.7332569812 7.8186311826 9.8048968086
9 1 12.2057447156 21.0135673761 5.3438447952
10 1 13.7623928266 15.8547180116 1.2431466644
11 1 16.2596479097 4.5637160822 1.7409677567
12 1 25.3949065556 25.8430909570 21.6350384838
13 1 8.1523407197 2.6139867359 18.3120440647
14 1 11.7797468819 3.2660942215 13.2523585481
15 1 0.9203357476 24.3360297246 6.9256967181
16 1 17.7310021511 8.3422850690 13.9185162824
17 1 14.6315397504 4.9472369850 25.9488737610
18 1 20.7447841121 25.1436942533 23.9481539715
19 1 16.0015233612 24.6720064068 2.3683139138
20 1 5.2450651656 1.2104123528 8.7067755014
21 1 10.4021223471 7.2620806571 22.1793997039
22 1 9.5477452644 7.5186156198 14.5241083132
23 1 3.7715376451 21.4690988171 1.9951896784
24 1 26.4119333175 20.6674914775 5.3182032664
25 1 0.1477877392 21.8240935943 18.9175358780
26 1 19.5103288900 20.6414131254 1.9816478784
27 1 9.5935740639 3.1009893436 23.0991304930
28 1 16.6812508629 8.8557830114 1.7010042866
29 1 8.3227815056 8.7028411248 19.5263601286
30 1 17.0628719411 23.7443651611 12.6378297780
31 1 3.2006860480 19.0884822370 20.3607963869
32 1 15.0213923856 20.6332995116 13.2153906187
33 1 13.9898342155 11.4422275223 0.6802889527
34 1 2.8874849485 0.8411354187 17.0321733134
35 1 8.4130703348 13.6108146578 24.2890895619
36 1 6.6717771699 10.9830275342 20.2207218974
37 1 6.1232970729 2.0602038286 7.7545823834
38 1 4.3147454185 24.8813835592 21.6276260086
39 1 16.9517065832 23.3227922503 21.5085766332
40 1 4.9931514661 23.8874463485 14.4343498738
41 1 21.6094212469 23.9819808959 8.5106877639
42 1 2.9453060774 6.1002006314 11.4306330485
43 1 21.8924282499 23.0356263987 0.1860590116
44 1 13.6690670405 11.1711191752 5.9442439269
45 1 3.2079420364 9.0355531757 25.2349760652
46 1 8.6498401914 13.8843293989 18.8148096551
47 1 9.7317741822 26.0076839769 25.7578582033
48 1 6.7384185171 13.3078004104 8.0523690819
49 1 7.6231510061 0.9872008208 16.3136950594
50 1 13.4531366758 1.3777194680 7.4573809417
51 1 24.3078078400 6.4113653217 3.8778035840
52 1 13.0991638323 26.3788414892 6.4780953656
53 1 17.9882807240 20.3831317929 6.3598642690
54 1 19.4891642872 9.8429346022 16.9223229273
55 1 16.9550774812 14.3388717635 2.4164139756
56 1 22.3550976259 8.5849972995 4.9917718803
57 1 1.0912600824 15.8139949314 18.1335714149
58 1 0.4439380189 13.7050833348 6.0616784855
59 1 17.2666797853 4.6665472253 18.4914814337
60 1 10.3501503558 25.0695891104 3.6804560602
61 1 9.1279166708 3.0368778481 24.7474612130
62 1 23.4801248643 6.9032599565 17.6630715921
63 1 21.8712169113 14.8587708176 14.1749730778
64 1 6.4726630205 2.4916978873 24.0120746274
65 1 24.0977773661 16.9436161860 9.0734124668
66 1 9.3458527583 19.4286622618 24.0092511975
67 1 23.7409845197 20.8717130091 17.1826137292
68 1 2.2518275016 4.3256493328 24.0478948797
69 1 16.2297860996 0.2461395576 2.7156703817
70 1 17.7572159807 0.1354625440 4.3036860388
71 1 14.6856946995 18.5171058066 17.4483587460
72 1 6.0020918577 19.0599646289 6.3494680558
73 1 8.7086319725 19.9782573696 17.3860451225
74 1 22.7276613539 17.5996126973 15.2095730305
75 1 2.5070062534 9.8411326668 7.0975782444
76 1 6.5298647212 26.0405614223 10.5204259030
77 1 23.8737318913 16.8910851747 21.2714368492
78 1 13.4520145051 15.4396074832 13.1811902705
79 1 5.2252639924 19.3348968212 7.5142760930
80 1 0.6507652094 17.2746954140 4.7399912602
81 1 25.1693770549 25.5298728062 24.4844027952
82 1 9.9065116230 0.4136635211 24.8444751503
83 1 11.4594395301 25.8704636517 25.7892425509
84 1 22.8289868084 7.8802993680 10.3063229954
85 1 22.7788657226 8.4817445207 4.5361134668
86 1 14.9016034864 25.0541947137 18.6277595690
87 1 15.2564767583 2.6007225127 16.4593625257
88 1 26.4966890329 3.7490512156 13.8719925323
89 1 23.4810272696 19.8250991175 18.6541462752
90 1 18.8004948640 9.6210173244 7.8573623033
91 1 21.6608327413 21.6809648262 23.2053494787
92 1 24.4409442282 13.6849935289 13.4220187153
93 1 21.3646753773 17.3949044838 18.7866529241
94 1 21.2977010235 23.8191031500 9.0457226794
95 1 10.0516802203 2.5152270600 15.4764400626
96 1 0.9619186389 12.4607423116 14.5227314047
97 1 7.6686681759 15.8123976528 0.8162744259
98 1 0.9995449673 22.0151573086 9.6397376941
99 1 3.4005048228 13.9767319320 20.6072424562
100 1 5.7759915299 16.6703409492 2.2841436751
101 1 1.3831515269 14.2205784436 14.4689510536
102 1 17.0594578047 19.4322927759 26.1166087975
103 1 13.8176825180 8.6432442374 21.2814700168
104 1 7.2482501240 11.7481379700 2.0997184535
105 1 0.6784588181 25.7632407460 22.3732328181
106 1 18.6262718051 10.9447571928 4.6378545062
107 1 4.1867052711 6.6972198074 14.6988854614
108 1 19.1246425090 17.6687809349 7.4918363444
109 1 25.5549416907 19.7482441364 14.8361091086
110 1 16.3714068545 11.2297046985 6.6299939058
111 1 9.5268528772 20.2821419478 0.3852111603
112 1 3.1064377563 1.2311630324 1.0900199112
113 1 22.8945860592 18.8319084700 12.6902556821
114 1 2.6183235703 13.1570550079 12.6714665822
115 1 4.6353802739 11.6111181579 10.6651330373
116 1 16.4819201877 16.9969330174 1.2124656237
117 1 10.0257111838 16.7498117027 13.4653736091
118 1 22.9221319420 17.6285363903 4.3605939684
119 1 1.8886226796 17.1929878779 0.7095189329
120 1 15.6770396059 25.1632659413 15.4013444178
121 1 10.3885438408 17.2162432183 12.2641655668
122 1 14.6022748117 25.1963065150 10.3332172563
123 1 25.7242244634 24.2297875243 5.2399339827
124 1 1.8563079372 2.6971092164 0.4876684716
125 1 2.5275653059 18.2792260044 1.9052130152
126 1 8.5367054368 22.6112937028 0.6228239447
127 1 21.7975195066 7.5432445607 3.1624307019
128 1 18.6466907900 16.8323198065 23.4836752314
129 1 19.6726156488 21.5034610027 7.5480564670
130 1 4.7487926169 20.0886099838 21.5932185760
131 1 26.5087669022 11.0428359765 9.9562741287
132 1 20.7790442709 9.1208830979 24.9097434639
133 1 22.9735945626 11.4811142234 20.0954697413
134 1 20.1937378401 2.7598913778 24.1549120803
135 1 13.5220069034 22.1183791933 8.5654479832
136 1 23.9667776704 10.4161565064 0.2900467294
137 1 24.2306261247 2.4430940675 8.5457514844
138 1 25.4263912011 25.4409817831 15.3468474464
139 1 16.9097813503 12.0016921734 7.8471637052
140 1 8.7960086756 17.9985284615 20.1357066999
141 1 21.1849322785 21.1324529288 2.4409376825
142 1 13.2321096109 1.5404379925 14.7069736742
143 1 11.8166263302 23.7575175141 9.3914951834
144 1 3.1330501164 3.8268687438 20.3802150779
145 1 16.5452937499 2.7063337041 2.2509400746
146 1 18.7599503764 1.9473473615 21.9953393619
147 1 18.9010735859 2.1771273791 2.2705012744
148 1 26.4053133032 10.0165631275 9.9194500504
149 1 21.7528545315 25.3510968006 26.3882248137
150 1 20.1625674168 10.0697888629 2.2347193783
151 1 20.7986870230 14.9445040372 11.3534012910
152 1 24.2566505781 2.9759644989 13.1840648838
153 1 0.3038561940 12.5427069362 1.5068376201
154 1 3.1799092328 3.1453404416 17.3747352129
155 1 19.9663070533 15.6126262815 25.7505051975
156 1 10.0326150665 7.6464773127 23.2462112959
157 1 5.9840678380 25.7786059762 0.3252887064
158 1 25.9567473710 1.1550833983 23.8495531985
159 1 14.1227996722 26.5745943219 1.9750083566
160 1 14.8227338763 25.9413241637 13.9996030613
161 1 16.8445180943 18.6202363186 12.1648264330
162 1 16.7952594662 15.6379318346 24.1175806457
163 1 1.2162758697 7.5193831765 25.4357452821
164 1 23.8260198034 12.1946854537 16.5965322001
165 1 7.4235183755 5.0346633864 12.4099031981
166 1 9.4567220804 15.6203165072 2.0804024978
167 1 26.0776080122 26.3938364712 18.6848158099
168 1 14.3474809064 8.2838494037 21.7794957026
169 1 18.3253758857 4.3520970833 24.3790318442
170 1 22.0134627439 25.4193778887 19.4223416603
171 1 16.4167552028 11.1933867755 24.9624973156
172 1 23.1783610157 1.2101816888 0.7056560852
173 1 10.0752426379 21.6927387819 26.4223492341
174 1 4.0255886975 15.9006470283 10.1937349999
175 1 25.9576993561 22.5375248353 22.4360876873
176 1 12.5435772060 11.1017631587 7.3171597318
177 1 1.5087704610 23.1424582622 21.7555694078
178 1 26.7553207403 26.6728687009 14.8649502053
179 1 20.5803153112 25.2846486592 22.7390082832
180 1 6.6197467280 12.0578571031 3.4566774914
181 1 25.5331499273 16.2229769492 6.1191391927
182 1 17.9766425392 16.5428898318 9.5854646309
183 1 3.0391278288 17.9732305718 13.9249308013
184 1 20.6694618258 13.9210716001 22.8068283469
185 1 14.7706146293 15.0123137211 23.4617722023
186 1 10.7983621648 3.5866330236 0.7703072148
187 1 20.2096452012 16.6012679862 18.8431999610
188 1 5.6995335780 3.6496929750 0.3892570927
189 1 9.3827315792 15.7878942665 10.4975789821
190 1 11.7080873604 24.1978875814 9.3203180946
191 1 13.7558372800 20.9728088892 10.6126255560
192 1 16.6488296022 23.0793335347 25.4119032947
193 1 3.9361094235 24.7981502855 13.1704476321
194 1 6.9113627006 12.2877935939 26.2284908914
195 1 13.1838772680 8.7983387832 16.9516289121
196 1 6.4269875651 2.0303208898 3.4491920957
197 1 3.4268749891 4.0653530440 3.7154144925
198 1 17.1516517211 4.8676342576 9.2510508536
199 1 24.0006375644 12.6845768988 17.8657653896
200 1 4.6117754513 5.1462072849 1.0937617346
201 1 4.5211882490 7.4558788697 4.7373097503
202 1 2.3739349664 3.2285629336 12.3317653158
203 1 5.5220838473 9.7489093459 13.4728943059
204 1 18.4769516145 1.0521059481 21.3945218710
205 1 16.8044206507 2.1881068842 23.3794769308
206 1 24.6451944339 1.6346219035 7.4100423349
207 1 21.5762653782 20.0255817700 4.9383132740
208 1 5.6027901100 9.9148991764 12.9672288700
209 1 16.5462761673 9.8731902175 12.3787595382
210 1 20.0044724908 0.9817480328 6.7559387946
211 1 19.0912869506 23.9583101422 13.6939602502
212 1 14.2408875515 2.8682313161 11.9740419695
213 1 14.2543701853 6.4892081716 7.2057233694
214 1 10.0972095061 0.5371629896 8.6197649689
215 1 5.6589569218 8.7647712282 3.2051791571
216 1 23.8330717370 15.8862415943 18.1747315764
217 1 21.1204924872 13.3397470698 2.3262369455
218 1 14.3745161080 15.7055564344 19.9501046718
219 1 11.5524511756 3.4144159023 7.5946595533
220 1 9.7171266997 17.2866034335 15.2756693426
221 1 9.5301727383 26.4019858826 16.2122767471
222 1 6.3488713571 2.7239917563 4.0909502815
223 1 6.5825363373 4.3002957669 4.9930702452
224 1 7.6299668234 4.6399761392 24.0000224122
225 1 2.1472858355 14.0374336024 10.9833996440
226 1 26.2912777139 2.9984833148 10.6477603080
227 1 25.9458175880 23.1634604200 21.8671990206
228 1 6.9022215389 4.5734434164 17.8948159945
229 1 24.8727749263 14.9005766097 15.2979998800
230 1 7.4930459385 20.5938444274 5.0058287643
231 1 8.6625874668 11.3859029144 13.5851139334
232 1 6.4875817590 3.0733637714 16.3419488547
233 1 7.7245838838 15.5556068040 4.1311903029
234 1 12.8766931806 14.2536252700 1.3869469217
235 1 9.0084987655 3.5973234142 1.6960965153
236 1 26.4941835535 8.6271161795 21.6745698683
237 1 6.8149164247 18.2389732679 20.3458844138
238 1 15.9410061222 12.6207353489 11.0220475705
239 1 9.3367183725 24.8768737979 22.2297647249
240 1 25.8268961406 3.3265512558 19.5601160610
241 1 25.1126898691 4.8503181884 1.7796313989
242 1 19.8345204940 15.3745530469 22.5297596836
243 1 3.7407108699 21.2836409435 5.3961270887
244 1 4.3799038063 4.3962252821 21.8003627315
245 1 17.8025911424 13.9987354248 9.6033359724
246 1 23.4764098407 10.5029599882 21.8545500427
247 1 11.7525133755 10.0881172555 12.3826420163
248 1 8.0657388608 20.0081775981 13.4542437721
249 1 6.2146797087 24.0752033108 10.2740333913
250 1 14.5470381559 24.2598012610 16.7064044632
251 1 3.1285278401 25.1526111634 16.7992731748
252 1 8.9630376428 3.7273212967 21.2503981699
253 1 16.5949306594 14.2769533836 23.9231369076
254 1 21.1051298632 4.0592560919 8.3425792387
255 1 6.6502841891 19.9101428366 0.8974244134
256 1 15.2518873206 20.4055877308 23.4647705572
257 1 9.1550916332 21.9792079144 2.9608235259
258 1 22.6534982445 3.4119633398 10.6325507381
259 1 21.3379175003 4.0122216106 6.1354268045
260 1 19.3295563730 19.2702489861 17.1589549911
261 1 18.5720565967 14.5248673134 6.7388671454
262 1 9.2518192206 4.8600772884 24.3127502841
263 1 15.6132426217 10.7279370079 12.3646043185
264 1 25.3520271378 4.1041246804 15.6891966625
265 1 13.5390362941 16.3642742589 0.4846806151
266 1 23.3405445684 24.9461665850 15.1245896636
267 1 18.6443800434 24.6887371162 18.9277403077
268 1 4.0823835845 15.4231342780 16.2374399270
269 1 11.3509568248 19.7093662121 25.0063491297
270 1 24.7708759100 12.0657584702 3.0305758490
271 1 26.3571834935 22.4513259804 3.3363319556
272 1 24.6443776867 23.2809290060 13.8855989062
273 1 15.8242315325 10.6784601329 1.4655789830
274 1 8.9708424200 21.4866677850 0.1239662602
275 1 8.9253971833 10.6561396187 14.3822522150
276 1 24.6179823660 9.2692151134 9.2854657336
277 1 19.7376549068 12.1026529553 6.0110711636
278 1 12.1085829462 3.7697390568 4.7206231564
279 1 13.3377552109 11.2116501161 24.4839079723
280 1 9.6987032082 15.5382143828 16.9212111259
281 1 0.3504453260 17.7581688169 4.7647546144
282 1 25.7210063251 3.9786422402 11.0965342650
283 1 2.2842026359 26.6792226032 13.4401830983
284 1 15.9342157572 1.7951594881 20.0710995357
285 1 5.6176774889 24.0345161422 5.4901268871
286 1 5.1033519402 0.9781742509 12.6338694062
287 1 15.1167735568 1.7585522096 20.7553499174
288 1 12.1313131555 14.0341920763 11.7960790129
289 1 10.7255723502 14.9775851358 4.1546755476
290 1 4.8689201093 23.0638622441 25.3207713769
291 1 9.9908311709 7.2459062816 17.2352803160
292 1 10.9389021896 0.6794119043 4.1790926965
293 1 19.1614764206 17.6347001562 0.7251667041
294 1 5.9406135818 6.1842262700 17.9817825957
295 1 0.5275106899 2.7862451343 21.4080554955
296 1 4.7783687609 17.4693635456 6.3744563810
297 1 2.6613377249 6.5079873440 19.3299407806
298 1 22.9008989961 22.2190717990 10.6297737968
299 1 17.8798800786 5.4859694063 7.8454765350
300 1 23.9885249170 0.3479688747 2.2884542608
301 1 5.5636341965 0.7100780986 4.8557341630
302 1 15.6038693578 11.2785332502 23.8904628615
303 1 21.8771411828 9.1480156085 6.9429173400
304 1 10.1616610716 15.7979907132 7.1741541444
305 1 16.7040202104 10.9570335325 14.7743705870
306 1 11.6720004879 7.8807507901 25.3833388296
307 1 20.4362876518 3.7498316352 23.2427012833
308 1 13.0450610172 23.9407908743 21.4064275250
309 1 11.3799365553 0.6013433262 7.1905790186
310 1 14.4956896576 16.9536994357 6.9018163059
311 1 3.7295694160 22.3451349099 26.3454341020
312 1 14.0689814869 4.5946315446 7.2877273811
313 1 0.4921874073 24.4692661495 3.1513577027
314 1 15.4292393009 7.3345060570 14.8313975043
315 1 17.4338834782 22.2062775152 5.5244270269
316 1 0.2942800057 3.6634532279 24.0870878633
317 1 23.3878123212 15.9884931418 16.0715586412
318 1 17.7982944656 4.6934398917 24.4722940844
319 1 11.2075038878 10.2538891581 13.8877305200
320 1 1.2569443739 4.4502212812 19.7519026144
321 1 2.2159305336 16.1420854859 6.5662479501
322 1 10.4186704855 7.7262748568 9.5188250262
323 1 19.2437368412 7.9518318150 15.1586175026
324 1 12.7404781767 17.7617495118 25.0722587231
325 1 19.6057366495 5.7524228319 0.8345503961
326 1 7.0189402582 15.9259972358 1.3763027011
327 1 13.2841886299 15.9732315243 8.9453280094
328 1 20.6318281901 2.8528758960 2.0109031817
329 1 19.4884258349 13.2607729596 18.4236283973
330 1 11.6372304120 6.5944272133 21.9215342632
331 1 21.3946685332 18.5920759346 7.2833867291
332 1 15.7962705120 9.6606998652 2.4509997286
333 1 24.5499500377 3.6616601380 25.4310850556
334 1 11.9363974714 4.9546897319 14.5028281924
335 1 23.3625416974 19.5964442897 21.5858964829
336 1 17.6309379595 18.5273122799 22.7269184451
337 1 6.6818341159 13.0984199144 5.9202009976
338 1 26.4328370349 25.2657436256 1.0551748880
339 1 18.8832212849 24.7623065575 4.8327156814
340 1 15.1998481295 24.5011003511 0.9084920365
341 1 18.6649725614 7.9579147960 24.7395013205
342 1 25.9883120017 25.2712875401 12.6913365696
343 1 23.0707411056 22.6025713485 8.5400465933
344 1 22.1841625592 0.9904307617 15.9578971873
345 1 6.1556981328 3.2267166880 2.0594890404
346 1 18.6346905975 9.0960317200 19.3968436813
347 1 1.7491236848 8.4380764094 14.4383388929
348 1 21.1620264975 8.5307339068 16.7506536822
349 1 23.7113131600 16.4822705172 6.2346656792
350 1 0.6530351061 23.2863488053 0.5692306183
351 1 23.4095329413 14.1558792552 25.1321529487
352 1 21.3777371814 26.7075874704 9.3860570445
353 1 20.5321655174 10.7568274488 12.8428520169
354 1 16.7938512876 23.3821128086 26.3369044654
355 1 20.5612065821 11.1806408451 11.2767254629
356 1 19.7398241311 6.3903632908 2.9566050589
357 1 9.4907090500 7.6873416928 7.9300576679
358 1 6.2520154177 1.1265348406 0.4783579099
359 1 26.4342924467 11.4484395975 10.2856866379
360 1 18.1893163687 5.8411018717 25.4236939554
361 1 21.0448545979 2.3928956229 11.1756627793
362 1 23.5277347956 25.2837465471 12.5090089754
363 1 16.4166533239 4.4703088898 26.5265236463
364 1 6.2002011594 25.2302141525 17.3864131105
365 1 16.2647848559 13.7210193624 6.1733877099
366 1 4.7243979397 5.9008452087 4.9896242061
367 1 20.8639230773 9.3703591110 1.5480364160
368 1 25.9359741181 23.6526525936 24.8293198847
369 1 26.6265953011 4.6539370989 10.6045762617
370 1 20.2926427703 18.6275139227 4.1186971530
371 1 21.8340412628 6.0066753315 5.9900032098
372 1 14.3709802255 15.8687783165 15.5247756066
373 1 2.4484509412 23.4833768014 7.1082211688
374 1 3.4661918581 23.7854552036 25.5759831344
375 1 23.0730150475 21.6649788260 17.5361602810
376 1 14.7425278423 2.3280159227 10.9313829445
377 1 9.9742167968 6.9517584651 19.3608032437
378 1 13.2710611144 2.1690298765 5.8927358666
379 1 18.2859699882 2.0374807992 22.7807456148
380 1 13.2515454090 12.8618792720 15.8545364468
381 1 22.0708349381 9.3083749168 18.1456626341
382 1 15.1406147498 7.1464446473 23.5146659154
383 1 21.3414142261 17.6220652081 22.7640138670
384 1 23.2112876895 18.9578309447 22.4008844324
385 1 18.6663426714 18.2025235557 16.5558199880
386 1 20.1448625508 4.2447288635 23.5746354425
387 1 23.3330407609 0.7827414272 22.1012318022
388 1 3.4489283626 8.9687445480 19.8984197256
389 1 4.3023972626 21.8911505419 22.2703043321
390 1 13.5812963449 0.1709042968 7.6819661421
391 1 16.5107389972 26.2593646192 16.9091474674
392 1 6.9530911842 16.9678164055 14.4515620914
393 1 20.8709060895 2.8631096372 20.3672958555
394 1 14.4858506611 25.7724361808 9.1494825979
395 1 16.9307816701 24.9437531898 2.7434552021
396 1 25.0829303643 18.4098007114 1.8155148428
397 1 8.0546508079 18.9527222308 1.8024958371
398 1 15.5805561948 9.2568255766 16.6174853906
399 1 1.2241884071 23.3248320088 26.0533651685
400 1 25.9299584963 20.0628394774 3.4814819940
401 1 20.2933043546 0.6580166115 0.5920898799
402 1 8.6607403666 13.0774974137 20.6183186663
403 1 18.2869498559 11.9336391132 7.3230367084
404 1 26.6859199678 11.4058376075 12.0804152379
405 1 4.3790441379 21.2713898859 18.5649318188
406 1 5.9084299075 2.2047537593 18.2121188582
407 1 17.5166028712 7.3132110050 25.4478441945
408 1 4.0427437195 11.5705229368 25.2538764437
409 1 11.2331103950 17.0887911530 10.6407698156
410 1 7.3387876265 26.3340723846 10.9549555055
411 1 23.9286666699 6.1542467446 5.7032949000
412 1 0.8332376188 17.4404788418 9.8628250666
413 1 23.1327131919 12.6644583459 25.9116412511
414 1 4.9651964858 23.2468546692 20.7839657511
415 1 20.6320862083 22.6088293008 20.3671911709
416 1 16.7594572018 3.5124904678 0.8704941285
417 1 24.6445373326 16.5033362823 21.3176292379
418 1 12.8869232811 3.1395045872 3.3503319107
419 1 18.3476991939 11.5162235720 5.3666185190
420 1 13.1564841992 1.7184158605 15.5752288231
421 1 7.1990372932 21.3449758038 8.3061788128
422 1 12.1830006827 0.3109990758 1.9388871192
423 1 10.5042566224 12.8445438164 16.0582758960
424 1 7.8057296073 18.5997144683 23.0193495901
425 1 20.8710557941 1.0603137344 12.8597481423
426 1 2.8082334182 6.4778208949 26.4059292446
427 1 3.8135906329 13.3516820957 16.5436256466
428 1 18.7999833333 14.9778086641 0.2614959839
429 1 8.7370437122 13.8554528342 2.3515602752
430 1 9.3837852980 0.8886107038 2.1029866240
431 1 10.6228086667 3.5518553504 15.1890256962
432 1 18.4520658996 21.4260030481 5.3565962913
433 1 4.4823156842 2.7985362088 17.0327042428
434 1 18.9073226997 0.8453360967 25.0557328320
435 1 1.3909010519 14.4866470340 18.9764991949
436 1 23.3096391946 19.1110204573 21.4565497662
437 1 9.0846636201 21.8070639823 2.1441037488
438 1 23.9478677595 14.6551471985 21.8732393755
439 1 12.1053384394 17.2239904489 14.0880494646
440 1 19.5794401038 2.1846531372 1.6151953773
441 1 6.6131933631 4.2698745885 23.3314360280
442 1 5.8667968960 26.1169614347 9.0163005074
443 1 4.8739993070 21.1346037100 17.6289149213
444 1 13.3331504897 14.8631261904 19.2479084534
445 1 6.1141060544 26.6647616631 26.0882691240
446 1 17.4045861035 5.3403299937 18.2048645225
447 1 1.9322371113 0.8203491345 6.8963353511
448 1 12.3811211106 23.2374699307 19.4611360926
449 1 19.8769629883 11.3874256105 9.2582155225
450 1 9.9300646333 26.4323434135 1.0734373409
451 1 23.2042569523 15.4870185599 11.7386103454
452 1 19.4099812800 13.0246608319 23.3753183537
453 1 24.1053728537 11.2864651320 7.4087081811
454 1 15.8529987572 24.4174676471 5.6379261719
455 1 16.6723778114 16.9023682455 19.6202133640
456 1 3.5211297236 19.1575352080 24.3283251899
457 1 4.8088368726 6.3573426957 25.9973270466
458 1 4.8434638556 22.8658028358 13.1747715326
459 1 6.6166147397 23.3037721706 11.9176495958
460 1 13.7779933227 9.6141183414 15.8690704759
461 1 4.3763692257 10.4664669119 25.9442623720
462 1 6.9083932097 17.5761623219 8.7030215654
463 1 20.7003658280 3.5025556340 25.9552009684
464 1 12.1447135054 6.3173894255 1.9669843804
465 1 4.5432098683 13.9106460531 9.0191744298
466 1 22.1833032496 11.5317896308 6.6563093897
467 1 16.5165751303 18.9153914500 4.4705219707
468 1 4.4859724039 0.9814328743 19.7082362685
469 1 17.7653186694 12.7024875655 22.5924295681
470 1 21.5620508961 15.6657666306 23.2374371490
471 1 5.5089029066 2.9952909648 7.2192755701
472 1 1.5278084859 14.2156245397 25.0662625801
473 1 1.0529463245 3.2680125622 12.1021467995
474 1 24.9931818682 8.4612468287 13.5750625999
475 1 1.1126092973 3.9700907841 26.4050602457
476 1 25.8293525919 0.1322081002 25.4732213743
477 1 17.1046880382 23.2279902284 12.1701466484
478 1 13.7988328962 13.0829407112 17.8472058439
479 1 3.7374693002 0.8021794875 8.2410910330
480 1 18.8592843063 5.4021790335 18.0229891218
481 1 25.9576364177 2.5130532708 18.0007675013
482 1 11.8760323673 23.2339840385 4.7410379574
483 1 18.5366629000 22.4303760863 25.2805938049
484 1 18.2856826788 13.3058268654 16.5353694566
485 1 23.2543968900 15.2711582448 0.8132451294
486 1 24.9148650731 18.4537193608 18.1054442722
487 1 5.7720874926 17.6336705435 10.5409444917
488 1 17.4288678124 2.8527361182 17.6058327191
489 1 26.7471862305 1.2902928474 26.1519921240
490 1 10.8900275466 23.3038671537 20.9388861755
491 1 15.1749862317 19.7630250739 23.5116035718
492 1 10.8159575636 8.7523481520 17.8667194070
493 1 21.6202812684 20.4009430077 21.3517882464
494 1 11.6574625100 21.8875962193 3.2171401169
495 1 14.5720945471 0.1541183204 8.6868505167
496 1 9.8075648420 10.6027208639 18.6127030426
497 1 10.3989325222 12.0083320603 6.3573642653
498 1 9.9892916458 6.0823889929 1.9589334766
499 1 16.1500202484 17.8832966805 16.5793436946
500 1 12.4044339062 10.1641599752 23.1052919414
501 1 13.8921217689 12.8242854673 0.6862554433
502 1 9.1327735060 10.1751284353 10.6736448765
503 1 15.5270815333 14.2807391197 16.2692889923
504 1 20.4704763538 21.7578370153 19.2190392837
505 1 25.5725627779 0.4879563605 5.2395820748
506 1 0.2024042899 17.3282858865 24.0338807783
507 1 6.5162866613 24.8101111405 1.6129287302
508 1 25.0081960903 9.4104345937 2.7143131180
509 1 13.0033259420 6.8720795996 7.6240183263
510 1 8.2239634165 21.4912830226 14.4295067234
511 1 8.3314895419 16.3342877369 19.1662521322
512 1 7.2962024940 11.0677635785 3.2620224771
513 1 4.8480776905 18.2286730862 4.8558121127
514 1 14.0548828400 18.9761176170 2.8603339058
515 1 15.1829069363 6.8663581243 25.7706931516
516 1 12.9410724810 21.5706791625 14.7256450582
517 1 1.1618442604 16.9449521438 25.4622902589
518 1 16.1008629129 21.9238503695 23.6639084811
519 1 6.1040707951 5.6749298874 16.3516088189
520 1 11.0003042228 22.4771044226 24.0872078024
521 1 9.4585727675 6.3393375436 20.8891080596
522 1 7.3546000225 22.0155255084 11.3404545996
523 1 17.8655555893 2.5567998166 16.6962701316
524 1 12.0906026448 15.6993299215 4.4965435115
525 1 19.7208611170 23.0909317304 5.8005805275
526 1 2.5615968397 0.6326365617 17.1810040569
527 1 16.2475827817 14.6311954024 6.2075715146
528 1 10.4617689366 15.9098968093 13.2949101502
529 1 26.4359819999 3.6515202631 18.6040679298
530 1 10.8207333040 11.4598534610 19.2049804617
531 1 18.5315832819 26.5288618537 3.4362005268
532 1 2.7862737009 19.3853903905 15.4792976958
533 1 7.3373280919 2.1254907731 2.2924611650
534 1 23.9311200492 5.1349215380 8.6543532178
535 1 6.0659773269 9.5007223319 1.8579817376
536 1 13.8915331401 1.8095066971 21.4198424671
537 1 6.2548076117 14.4522722414 23.5534480321
538 1 17.4193507195 14.2634834827 8.6801042168
539 1 8.9120891118 17.9173967775 26.6060290628
540 1 17.7127205771 14.9278887772 19.5543094545
541 1 12.4502404023 1.6095820944 15.0486803045
542 1 25.6288073329 4.6916110166 18.4665157570
543 1 5.3775635174 14.3402902066 2.5873398935
544 1 12.0532217982 20.2371058723 9.3020138182
545 1 17.7949504425 21.2885291543 24.8139455832
546 1 6.2796970855 10.6868425853 4.0790909590
547 1 26.5617135110 24.8092125269 14.4508060553
548 1 22.5352331634 13.9423340675 16.6889468271
549 1 2.3852261801 20.2132090750 3.4179802046
550 1 22.1079460644 20.9293212200 18.9680468975
551 1 0.9677558023 8.1125867888 7.0416492445
552 1 9.6382862378 2.3455720179 25.0756866115
553 1 14.8213410375 8.1767094291 10.6243673600
554 1 11.9684264136 16.0736320396 13.8010648965
555 1 24.6055739403 13.3001723753 26.5530025336
556 1 22.7865810913 5.5803411687 24.9054049083
557 1 3.1142995488 21.8773056876 10.1865742402
558 1 23.4971184095 23.2316940925 21.5688820445
559 1 21.1434870892 8.1540902069 2.1656327881
560 1 10.7849088027 4.6440151843 18.5988902460
561 1 9.2626242779 26.1101354303 17.1542566199
562 1 22.0119458431 3.5467414651 23.0699872297
563 1 24.6956368356 13.0351780374 16.2250725707
564 1 20.4685103358 4.6791846090 13.4501138954
565 1 10.6693694234 3.9173890919 9.8362783957
566 1 1.8244871047 0.6908008809 3.6174387192
567 1 25.7757308978 14.7069911656 25.8481793313
568 1 11.5748873541 8.3450966964 13.5458122250
569 1 11.7625970939 2.8278909075 17.1503555919
570 1 5.7818032227 16.5819559893 17.4012516110
571 1 4.0686223867 1.6418925008 20.8954259939
572 1 12.3055820090 1.5566304826 26.6254844952
573 1 1.5463740247 18.6011420732 26.3260777059
574 1 6.4011476180 3.8070023028 3.2486101567
575 1 8.1165153548 2.7042765726 18.5242285857
576 1 1.6671077075 13.6336015608 26.6744749226
577 1 21.7841858913 16.4650419167 8.1962278661
578 1 16.6972472875 14.1051456698 11.4032170309
579 1 3.4981856850 23.7280792191 12.0375310599
580 1 5.2086582704 9.8422981317 11.0833034697
581 1 22.1472945936 19.6336311502 20.5888119481
582 1 0.2952283688 11.1374781063 12.8821541397
583 1 0.5136405366 6.9533488487 20.3475427281
584 1 3.6694501372 14.3264389990 5.7594211482
585 1 0.3243867963 6.4552448492 26.1171888948
586 1 21.4514388279 25.6810313349 13.0563775839
587 1 2.9368563454 14.6649721936 12.1604445416
588 1 22.5974244246 2.6249720076 13.0667373086
589 1 4.0157338995 8.6892617713 19.7337964836
590 1 12.7396144630 10.0598517965 10.5573199710
591 1 12.2961171742 21.0093009037 23.8747524605
592 1 25.5675043413 21.0597982345 8.4411958345
593 1 18.4164642337 11.7115184156 6.8157184354
594 1 22.5041423295 1.0283996361 24.1337449319
595 1 12.3504644465 17.0533445029 17.6462076658
596 1 23.9559256507 17.0391121486 16.4306287789
597 1 1.7838003377 13.8740899277 4.0189544403
598 1 19.7358489643 13.7085320664 18.2048521253
599 1 1.1152866970 2.2692782634 19.1708744514
600 1 1.9291841902 1.9070350132 0.3240576287
601 1 25.5987289051 19.7378452270 9.4540238599
602 1 7.9361451741 9.3590643897 20.7319568746
603 1 17.7001800611 4.9563661325 4.6596666591
604 1 2.6333506328 17.6716002161 20.4568112472
605 1 7.0934048586 0.5605474078 2.1991501979
606 1 25.9027186935 7.9069521263 20.5866241952
607 1 16.7177940193 10.2218034505 5.5047828195
608 1 3.2486497320 16.4595161805 20.7314282933
609 1 17.2327300896 14.1924105610 1.1227354166
610 1 25.9195456581 21.3758893622 7.8367600385
611 1 26.2268250113 16.1080827205 15.5873057396
612 1 20.0205902003 21.7252946787 17.5692559686
613 1 3.4282106549 9.0530115259 24.8381879548
614 1 6.0113599057 9.9602601393 11.5636203066
615 1 11.7597415234 16.4040264190 25.2394222845
616 1 6.4416293490 3.2517263425 5.2848783553
617 1 23.7366616714 17.2837550959 7.6516881239
618 1 21.8370872523 23.0527389328 22.6551587995
619 1 24.5931174383 6.7506953002 20.2070939784
620 1 12.3253617420 22.5343033813 19.4965061083
621 1 20.7799672090 17.5607783015 4.7485042653
622 1 14.5864881825 26.3525947457 25.0872011643
623 1 1.1554533642 4.4109185777 3.5254409107
624 1 19.4293107561 21.8862878808 5.7141783525
625 1 13.5380732070 22.4996314088 19.6118773261
626 1 14.5118274268 15.7994023999 13.6051905932
627 1 7.9632524897 15.1216138798 18.4365523409
628 1 23.3726334425 17.0289869979 20.3698017852
629 1 4.2839774159 12.3526057388 0.2497409901
630 1 6.6018360148 19.4422052473 26.5436873538
631 1 2.6542912422 10.7451428372 21.4122006188
632 1 5.4605805147 14.8556700092 19.6190966459
633 1 16.4855426022 5.0320827731 9.5111133627
634 1 20.9765228203 14.8326958147 0.1399595020
635 1 20.3663018160 0.9450334354 19.9579812151
636 1 5.4189622487 25.6408023369 9.8471529288
637 1 8.7496305097 3.9846725205 8.1788479123
638 1 23.4616961735 26.6647729455 9.8570225212