LAMMPS (22 Jul 2025 - Update 2)
KOKKOS mode with Kokkos version 4.6.2 is enabled
  will use up to 1 GPU(s) per node
  using 1 OpenMP thread(s) per MPI task
package kokkos
# Three-Temperature Property Evaluation: 293K, 600K, 1000K
# FIXED VERSION: Proper fix ave/time syntax
# Estimated runtime: 15-20 minutes on H100

package         kokkos neigh full newton off

units           metal
atom_style      atomic
boundary        p p p

# System setup (108,000 atoms for better statistics)
lattice         fcc 4.30
Lattice spacing in x,y,z = 4.3 4.3 4.3
region          box block 0 30 0 30 0 30
create_box      1 box
Created orthogonal box = (0 0 0) to (129 129 129)
  1 by 1 by 1 MPI processor grid
create_atoms    1 box
Created 108000 atoms
  using lattice units in orthogonal box = (0 0 0) to (129 129 129)
  create_atoms CPU = 0.013 seconds

mass            1 69.723

pair_style      eam/alloy/kk
pair_coeff      * * Ga_belashchenko2012.eam.alloy Ga

neighbor        2.0 bin
neigh_modify    delay 0 every 1 check yes binsize 4.0

# ==========================================
# 0. Initial Melting (Stabilization)
# ==========================================
print "=== Initial System Setup ==="
=== Initial System Setup ===

velocity        all create 1500.0 12345 dist gaussian

thermo          500
thermo_style    custom step temp press pe ke etotal vol density cpu

# Conservative minimization
timestep        0.0001
minimize        1.0e-6 1.0e-8 10000 100000
Neighbor list info ...
  update: every = 1 steps, delay = 0 steps, check = yes
  max neighbors/atom: 2000, page size: 100000
  master list distance cutoff = 10.3
  ghost atom cutoff = 10.3
  binsize = 4, bins = 33 33 33
  1 neighbor lists, perpetual/occasional/extra = 1 0 0
  (1) pair eam/alloy/kk, perpetual
      attributes: full, newton off, kokkos_device
      pair build: full/bin/kk/device
      stencil: full/bin/3d
      bin: kk/device
WARNING: Fix MINIMIZE/kk not compatible with sending data in Kokkos communication (src/KOKKOS/comm_kokkos.cpp:767)
WARNING: Fix with atom-based arrays not compatible with sending data in Kokkos communication, switching to classic exchange/border communication (src/KOKKOS/comm_kokkos.cpp:780)
WARNING: Fix MINIMIZE/kk not compatible with Kokkos sorting on device (src/KOKKOS/atom_kokkos.cpp:212)
WARNING: Fix with atom-based arrays not compatible with Kokkos sorting on device, switching to classic host sorting (src/KOKKOS/atom_kokkos.cpp:218)
Per MPI rank memory allocation (min/avg/max) = 41.88 | 41.88 | 41.88 Mbytes
   Step          Temp          Press          PotEng         KinEng         TotEng         Volume        Density          CPU      
         0   1500          -34957.005     -302817.53      20939.95      -281877.58      2146689        5.824783       0            
         1   1500          -34957.005     -302817.53      20939.95      -281877.58      2146689        5.824783       0.006634252  
Loop time of 0.00665249 on 1 procs for 1 steps with 108000 atoms

100.0% CPU use with 1 MPI tasks x 1 OpenMP threads

Minimization stats:
  Stopping criterion = linesearch alpha is zero
  Energy initial, next-to-last, final = 
      -302817.52937537   -302817.52937537   -302817.52937537
  Force two-norm initial, final = 1.9633927e-12 1.9633927e-12
  Force max component initial, final = 8.5123781e-15 8.5123781e-15
  Final line search alpha, max atom move = 0.5 4.2561891e-15
  Iterations, force evaluations = 1 2

MPI task timing breakdown:
Section |  min time  |  avg time  |  max time  |%varavg| %total
---------------------------------------------------------------
Pair    | 0.0032479  | 0.0032479  | 0.0032479  |   0.0 | 48.82
Neigh   | 0          | 0          | 0          |   0.0 |  0.00
Comm    | 0.00069249 | 0.00069249 | 0.00069249 |   0.0 | 10.41
Output  | 0          | 0          | 0          |   0.0 |  0.00
Modify  | 0          | 0          | 0          |   0.0 |  0.00
Other   |            | 0.002712   |            |       | 40.77

Nlocal:         108000 ave      108000 max      108000 min
Histogram: 1 0 0 0 0 0 0 0 0 0
Nghost:          56255 ave       56255 max       56255 min
Histogram: 1 0 0 0 0 0 0 0 0 0
Neighs:              0 ave           0 max           0 min
Histogram: 1 0 0 0 0 0 0 0 0 0
FullNghs:   2.4192e+07 ave  2.4192e+07 max  2.4192e+07 min
Histogram: 1 0 0 0 0 0 0 0 0 0

Total # of neighbors = 24192000
Ave neighs/atom = 224
Neighbor list builds = 0
Dangerous builds = 0
reset_timestep  0

# Melt at high temperature (NVT)
print ">>> Melting at 1500K (NVT)..."
>>> Melting at 1500K (NVT)...
fix             init_melt all nvt temp 1500.0 1500.0 0.1
run             10000
Per MPI rank memory allocation (min/avg/max) = 30.5 | 30.5 | 30.5 Mbytes
   Step          Temp          Press          PotEng         KinEng         TotEng         Volume        Density          CPU      
         0   1500          -34957.005     -302817.53      20939.95      -281877.58      2146689        5.824783       0            
       500   990.52644     -13461.178     -295548.09      13827.716     -281720.38      2146689        5.824783       0.92075811   
      1000   830.37834      1542.7516     -292884.58      11592.054     -281292.53      2146689        5.824783       1.9529899    
      1500   875.39475      2747.0793     -292907.85      12220.481     -280687.37      2146689        5.824783       2.9970293    
      2000   896.90525      4842.9525     -292551.08      12520.767     -280030.31      2146689        5.824783       4.0501742    
      2500   933.64989      5584.6431     -292342.75      13033.721     -279309.03      2146689        5.824783       5.1010381    
      3000   960.62156      6885.986      -291956.39      13410.245     -278546.15      2146689        5.824783       6.1509284    
      3500   992.46232      8107.0522     -291599.15      13854.741     -277744.41      2146689        5.824783       7.1994056    
      4000   1027.5483      9281.6835     -291255.58      14344.54      -276911.04      2146689        5.824783       8.2618882    
      4500   1061.136       10425.605     -290864.04      14813.423     -276050.62      2146689        5.824783       9.3245432    
      5000   1096.041       11423.542     -290469.34      15300.696     -275168.65      2146689        5.824783       10.372846    
      5500   1136.5277      12597.134     -290135.19      15865.888     -274269.3       2146689        5.824783       11.42079     
      6000   1174.4937      13613.379     -289755.64      16395.892     -273359.75      2146689        5.824783       12.46763     
      6500   1207.138       14523.026     -289298.3       16851.606     -272446.7       2146689        5.824783       13.519136    
      7000   1249.8713      15653.076     -288982.03      17448.161     -271533.87      2146689        5.824783       14.566689    
      7500   1289.0275      16683.066     -288627.93      17994.781     -270633.15      2146689        5.824783       15.626594    
      8000   1324.3044      17751.885     -288240.01      18487.244     -269752.77      2146689        5.824783       16.671596    
      8500   1364.6528      18458.533     -287951.37      19050.507     -268900.87      2146689        5.824783       17.726046    
      9000   1394.205       19544.248     -287554.75      19463.055     -268091.7       2146689        5.824783       18.775822    
      9500   1428.4035      20454.433     -287271.47      19940.465     -267331         2146689        5.824783       19.825355    
     10000   1455.6884      21316.226     -286960.97      20321.361     -266639.61      2146689        5.824783       20.867215    
Loop time of 20.8672 on 1 procs for 10000 steps with 108000 atoms

Performance: 4.140 ns/day, 5.796 hours/ns, 479.220 timesteps/s, 51.756 Matom-step/s
99.9% CPU use with 1 MPI tasks x 1 OpenMP threads

MPI task timing breakdown:
Section |  min time  |  avg time  |  max time  |%varavg| %total
---------------------------------------------------------------
Pair    | 8.447      | 8.447      | 8.447      |   0.0 | 40.48
Neigh   | 0.052037   | 0.052037   | 0.052037   |   0.0 |  0.25
Comm    | 0.13832    | 0.13832    | 0.13832    |   0.0 |  0.66
Output  | 0.0074509  | 0.0074509  | 0.0074509  |   0.0 |  0.04
Modify  | 11.823     | 11.823     | 11.823     |   0.0 | 56.66
Other   |            | 0.3992     |            |       |  1.91

Nlocal:         108000 ave      108000 max      108000 min
Histogram: 1 0 0 0 0 0 0 0 0 0
Nghost:          60389 ave       60389 max       60389 min
Histogram: 1 0 0 0 0 0 0 0 0 0
Neighs:              0 ave           0 max           0 min
Histogram: 1 0 0 0 0 0 0 0 0 0
FullNghs:  2.47422e+07 ave 2.47422e+07 max 2.47422e+07 min
Histogram: 1 0 0 0 0 0 0 0 0 0

Total # of neighbors = 24742152
Ave neighs/atom = 229.094
Neighbor list builds = 18
Dangerous builds = 0
unfix           init_melt

# Density relaxation (NPT)
timestep        0.001
print ">>> Density relaxation at 1500K (NPT)..."
>>> Density relaxation at 1500K (NPT)...
fix             init_npt all npt temp 1500.0 1500.0 0.1 iso 0.0 0.0 1.0
run             20000
Per MPI rank memory allocation (min/avg/max) = 30.96 | 30.96 | 30.96 Mbytes
   Step          Temp          Press          PotEng         KinEng         TotEng         Volume        Density          CPU      
     10000   1455.6884      21316.226     -286960.97      20321.361     -266639.61      2146689        5.824783       0            
     10500   1460.6287      4997.4736     -285180.08      20390.328     -264789.75      2261556.9      5.5289334      1.1854881    
     11000   1505.3556      704.54828     -283914.23      21014.713     -262899.51      2305833.9      5.4227658      2.3589854    
     11500   1506.7252      14.362553     -283693.5       21033.833     -262659.67      2313835.2      5.4040139      3.5034553    
     12000   1504.5423     -97.457075     -283662.08      21003.359     -262658.72      2314132.6      5.4033195      4.6671689    
     12500   1507.1993     -14.981724     -283671.44      21040.452     -262630.99      2314362.3      5.4027832      5.8110159    
     13000   1502.3685      25.355182     -283656.4       20973.013     -262683.39      2313788.8      5.4041222      6.9647437    
     13500   1499.8001     -57.213978     -283755.9       20937.16      -262818.74      2312924.5      5.4061416      8.109125     
     14000   1497.3458      26.285166     -283634.88      20902.897     -262731.99      2314062.3      5.4034835      9.2655394    
     14500   1503.7701     -0.38474383    -283656.59      20992.58      -262664.01      2314144.6      5.4032915      10.408674    
     15000   1502.3857      113.99473     -283578.94      20973.254     -262605.68      2314263.4      5.4030141      11.572609    
     15500   1497.7737      314.71884     -283702.72      20908.871     -262793.85      2311663.5      5.4090908      12.718306    
     16000   1503.7307     -118.69832     -283698.45      20992.03      -262706.42      2314022.9      5.4035754      13.884289    
     16500   1504.3948      256.38952     -283657.07      21001.302     -262655.77      2312868.1      5.4062735      15.020727    
     17000   1506.0162      69.407537     -283611.81      21023.936     -262587.87      2313650.1      5.4044462      16.18412     
     17500   1505.0268      99.880467     -283678.35      21010.123     -262668.23      2313472.2      5.4048617      17.325828    
     18000   1501.6271      282.91316     -283690.11      20962.663     -262727.45      2312682.2      5.406708       18.479961    
     18500   1497.2969      121.8557      -283648.12      20902.215     -262745.9       2312911.7      5.4061716      19.623054    
     19000   1505.7999      116.2626      -283670.07      21020.916     -262649.15      2313407.2      5.4050137      20.78895     
     19500   1501.4216      171.00314     -283681.26      20959.795     -262721.47      2313272.3      5.4053288      21.936479    
     20000   1503.1426     -67.194286     -283750.8       20983.82      -262766.98      2312971.7      5.4060313      23.09364     
     20500   1498.1943     -107.71652     -283659.28      20914.742     -262744.54      2313973.9      5.40369        24.23481     
     21000   1499.8475     -434.81417     -283625.41      20937.821     -262687.59      2316911.4      5.3968388      25.391795    
     21500   1497.1829     -299.477       -283722.32      20900.623     -262821.69      2314124.5      5.4033382      26.534409    
     22000   1494.7635     -384.13905     -283590.82      20866.848     -262723.97      2316909.4      5.3968436      27.697876    
     22500   1499.5277      194.27615     -283669.79      20933.356     -262736.44      2313615.9      5.4045261      28.838869    
     23000   1497.2436     -78.690114     -283652.81      20901.471     -262751.34      2313844.5      5.4039922      30.001891    
     23500   1498.8847     -2.9615201     -283705.88      20924.38      -262781.5       2314222.3      5.4031099      31.137182    
     24000   1496.9869     -139.07645     -283664.68      20897.887     -262766.79      2314995.5      5.4013053      32.299429    
     24500   1502.1824     -151.42433     -283661.78      20970.416     -262691.36      2315392.9      5.4003784      33.442428    
     25000   1501.6438      34.927252     -283683.15      20962.897     -262720.25      2313060.6      5.4058236      34.598596    
     25500   1495.1579      50.239712     -283708.26      20872.354     -262835.9       2312760.2      5.4065257      35.742267    
     26000   1498.5308     -359.84982     -283645.89      20919.44      -262726.45      2316447.9      5.3979188      36.898587    
     26500   1494.634       43.190827     -283701.02      20865.04      -262835.98      2313668.1      5.4044041      38.043341    
     27000   1495.2639     -120.79777     -283597.3       20873.833     -262723.46      2315231.2      5.4007556      39.208967    
     27500   1498.3836      395.7896      -283690.98      20917.385     -262773.6       2312321.8      5.4075509      40.34454     
     28000   1501.146      -68.440403     -283663.45      20955.948     -262707.5       2314475.7      5.4025185      41.505644    
     28500   1500.9357     -152.20688     -283596.4       20953.012     -262643.39      2315933.1      5.3991187      42.649283    
     29000   1507.1563     -171.97171     -283604.86      21039.851     -262565.01      2314958        5.4013928      43.807799    
     29500   1495.5118      240.39386     -283655.97      20877.294     -262778.67      2312026.1      5.4082424      44.949478    
     30000   1502.524      -193.16316     -283620.77      20975.184     -262645.59      2316129.4      5.3986611      46.106605    
Loop time of 46.1066 on 1 procs for 20000 steps with 108000 atoms

Performance: 37.478 ns/day, 0.640 hours/ns, 433.777 timesteps/s, 46.848 Matom-step/s
100.0% CPU use with 1 MPI tasks x 1 OpenMP threads

MPI task timing breakdown:
Section |  min time  |  avg time  |  max time  |%varavg| %total
---------------------------------------------------------------
Pair    | 37.867     | 37.867     | 37.867     |   0.0 | 82.13
Neigh   | 1.1589     | 1.1589     | 1.1589     |   0.0 |  2.51
Comm    | 1.2383     | 1.2383     | 1.2383     |   0.0 |  2.69
Output  | 0.014346   | 0.014346   | 0.014346   |   0.0 |  0.03
Modify  | 4.4296     | 4.4296     | 4.4296     |   0.0 |  9.61
Other   |            | 1.398      |            |       |  3.03

Nlocal:         108000 ave      108000 max      108000 min
Histogram: 1 0 0 0 0 0 0 0 0 0
Nghost:          58708 ave       58708 max       58708 min
Histogram: 1 0 0 0 0 0 0 0 0 0
Neighs:              0 ave           0 max           0 min
Histogram: 1 0 0 0 0 0 0 0 0 0
FullNghs:  2.29317e+07 ave 2.29317e+07 max 2.29317e+07 min
Histogram: 1 0 0 0 0 0 0 0 0 0

Total # of neighbors = 22931692
Ave neighs/atom = 212.33048
Neighbor list builds = 429
Dangerous builds = 0
unfix           init_npt

# ==========================================
# Temperature 1: 293K (Room Temperature)
# ==========================================
print "========================================="
=========================================
print "=== TEMPERATURE 1: 293K (Room Temp) ==="
=== TEMPERATURE 1: 293K (Room Temp) ===
print "========================================="
=========================================

# Cool from 1500K to 293K
print ">>> Cooling to 293K..."
>>> Cooling to 293K...
fix             cool1 all npt temp 1500.0 293.0 0.1 iso 0.0 0.0 1.0
run             30000
Per MPI rank memory allocation (min/avg/max) = 30.93 | 30.93 | 30.93 Mbytes
   Step          Temp          Press          PotEng         KinEng         TotEng         Volume        Density          CPU      
     30000   1502.524      -193.16316     -283620.77      20975.184     -262645.59      2316129.4      5.3986611      0            
     30500   1485.9195     -78.202941     -283826.87      20743.386     -263083.48      2311816.2      5.4087334      1.121209     
     31000   1460.5087      251.77994     -284070.09      20388.653     -263681.44      2305696.7      5.4230886      2.2756791    
     31500   1446.6986     -75.769881     -284315.46      20195.864     -264119.6       2304292        5.4263945      3.4038929    
     32000   1423.4719     -122.41995     -284626.03      19871.62      -264754.41      2299957        5.4366222      4.5577231    
     32500   1406.3091     -80.731732     -284879.72      19632.028     -265247.69      2295432.5      5.4473383      5.6862837    
     33000   1385.4441      80.86165      -285144.65      19340.754     -265803.9       2290468.2      5.4591449      6.8374709    
     33500   1359.7496     -17.153707     -285293.01      18982.058     -266310.95      2288494.7      5.4638526      7.9736037    
     34000   1341.5419     -100.24867     -285615.41      18727.88      -266887.53      2284066.8      5.4744447      9.1243969    
     34500   1322.7105     -112.9481      -285850.43      18464.995     -267385.44      2280186.4      5.4837612      10.257133    
     35000   1303.8982      39.225029     -286129.68      18202.376     -267927.31      2275863.1      5.4941782      11.410601    
     35500   1279.3471     -23.050343     -286338.33      17859.643     -268478.68      2272885.3      5.5013765      12.546927    
     36000   1264.9371     -62.244269     -286669.53      17658.479     -269011.05      2268080        5.5130319      13.703651    
     36500   1242.1134     -78.776727     -286899.64      17339.861     -269559.78      2264937        5.5206824      14.837952    
     37000   1226.2187      24.59476      -287192.99      17117.972     -270075.02      2260121.9      5.5324439      15.994543    
     37500   1204.5573      356.72783     -287474.52      16815.58      -270658.94      2254140.3      5.5471248      17.128863    
     38000   1181.0313      76.361285     -287659.32      16487.158     -271172.16      2253020        5.549883       18.287754    
     38500   1162.4178     -217.02701     -287963.24      16227.314     -271735.93      2249532.5      5.5584872      19.424524    
     39000   1141.871      -134.65102     -288203.96      15940.481     -272263.47      2245270.5      5.5690384      20.577927    
     39500   1124.0321      199.31743     -288509.67      15691.45      -272818.22      2239348.6      5.5837656      21.722865    
     40000   1100.1815     -14.954285     -288717.57      15358.497     -273359.08      2236653        5.590495       22.879252    
     40500   1082.4128     -108.43045     -288985.26      15110.446     -273874.81      2233616.1      5.5980962      24.021652    
     41000   1060.4079      0.31639562    -289224.08      14803.259     -274420.82      2228544.8      5.6108353      25.179747    
     41500   1039.6438     -104.82676     -289496.26      14513.393     -274982.87      2224870.3      5.6201018      26.324137    
     42000   1019.929       86.993497     -289809.48      14238.174     -275571.31      2220412.6      5.6313848      27.48495     
     42500   1002.3377     -96.100401     -290138.97      13992.6       -276146.37      2215667.9      5.643444       28.625467    
     43000   982.90164     -73.617153     -290389.24      13721.274     -276667.97      2211851.2      5.653182       29.787475    
     43500   958.91109      96.384229     -290606.8       13386.367     -277220.44      2207066.6      5.6654373      30.929371    
     44000   944.22331      30.938288     -290949.37      13181.326     -277768.05      2202164.4      5.6780492      32.093887    
     44500   922.90091     -22.924507     -291218.65      12883.666     -278334.99      2198457.9      5.687622       33.236216    
     45000   900.12868      2.8629956     -291456.93      12565.766     -278891.17      2194830.3      5.6970224      34.395601    
     45500   882.37802     -31.384621     -291813.77      12317.968     -279495.8       2189265.4      5.7115036      35.543215    
     46000   862.456       -80.988966     -292081.92      12039.857     -280042.07      2184918.6      5.7228667      36.703481    
     46500   841.58748     -39.420769     -292355.78      11748.533     -280607.25      2180511.8      5.7344323      37.854095    
     47000   817.26522     -93.2529       -292589.01      11408.995     -281180.01      2176516.4      5.7449592      39.018636    
     47500   802.86071     -7.0063381     -292953.07      11207.908     -281745.16      2170174.2      5.7617483      40.16827     
     48000   779.66825     -23.072848     -293234.45      10884.143     -282350.31      2165233.9      5.7748945      41.338538    
     48500   759.43481     -2.011297      -293519.4       10601.684     -282917.71      2160840.4      5.7866364      42.489439    
     49000   739.45951      122.0025      -293807.18      10322.83      -283484.35      2155414.3      5.8012037      43.659549    
     49500   720.90717      26.836169     -294137.48      10063.84      -284073.64      2150712.6      5.8138859      44.817118    
     50000   699.93427      15.872291     -294441.95      9771.0588     -284670.89      2145150.6      5.8289603      45.993582    
     50500   681.97676     -116.01825     -294759.14      9520.3726     -285238.76      2140854.4      5.8406575      47.15307     
     51000   661.33074     -201.36014     -295074.08      9232.1549     -285841.92      2135785.8      5.8545185      48.322243    
     51500   639.22485     -53.447943     -295360.54      8923.5575     -286436.98      2130262        5.8696993      49.477536    
     52000   618.92792      74.821261     -295664.64      8640.2129     -287024.43      2124205.6      5.8864348      50.649192    
     52500   598.81697     -124.61443     -295983.12      8359.4648     -287623.66      2119960.7      5.8982213      51.814392    
     53000   578.44928      155.5098      -296296.65      8075.1326     -288221.52      2114477.6      5.9135162      52.983532    
     53500   560.05402     -102.25931     -296615.64      7818.3352     -288797.31      2109947.9      5.9262114      54.139987    
     54000   541.18982     -109.5401      -296983.26      7554.9917     -289428.27      2103948.7      5.9431095      55.30841     
     54500   520.7588      -118.44248     -297285.43      7269.7754     -290015.65      2099561.4      5.9555283      56.470366    
     55000   499.05564     -139.64561     -297573.55      6966.7999     -290606.75      2094719.3      5.969295       57.648253    
     55500   479.64007      15.657016     -297900.54      6695.7592     -291204.78      2089151.9      5.9852027      58.823389    
     56000   459.44827     -164.87092     -298220.56      6413.8824     -291806.67      2085310.8      5.9962273      59.995817    
     56500   438.48598     -75.134995     -298533.71      6121.2495     -292412.46      2080004.8      6.0115235      61.170765    
     57000   419.01025     -81.704938     -298846.24      5849.369      -292996.87      2075132.6      6.025638       62.347549    
     57500   399.18998      57.106506     -299155.38      5572.6787     -293582.7       2070485.1      6.0391633      63.520325    
     58000   379.51348     -112.2159      -299500.09      5297.9955     -294202.1       2065735.6      6.0530484      64.698616    
     58500   359.25348      43.171443     -299812.07      5015.1665     -294796.9       2061177.5      6.066434       65.875599    
     59000   339.84576      107.13838     -300134.78      4744.2354     -295390.54      2056469.9      6.0803213      67.059939    
     59500   319.88811      52.724134     -300461.91      4465.6272     -295996.29      2052056.3      6.0933988      68.239084    
     60000   299.9566       9.2176052     -300774.85      4187.3841     -296587.47      2048374.1      6.1043525      69.414259    
Loop time of 69.4143 on 1 procs for 30000 steps with 108000 atoms

Performance: 37.341 ns/day, 0.643 hours/ns, 432.188 timesteps/s, 46.676 Matom-step/s
100.0% CPU use with 1 MPI tasks x 1 OpenMP threads

MPI task timing breakdown:
Section |  min time  |  avg time  |  max time  |%varavg| %total
---------------------------------------------------------------
Pair    | 58.307     | 58.307     | 58.307     |   0.0 | 84.00
Neigh   | 1.2617     | 1.2617     | 1.2617     |   0.0 |  1.82
Comm    | 1.4436     | 1.4436     | 1.4436     |   0.0 |  2.08
Output  | 0.021782   | 0.021782   | 0.021782   |   0.0 |  0.03
Modify  | 6.5513     | 6.5513     | 6.5513     |   0.0 |  9.44
Other   |            | 1.829      |            |       |  2.64

Nlocal:         108000 ave      108000 max      108000 min
Histogram: 1 0 0 0 0 0 0 0 0 0
Nghost:          61496 ave       61496 max       61496 min
Histogram: 1 0 0 0 0 0 0 0 0 0
Neighs:              0 ave           0 max           0 min
Histogram: 1 0 0 0 0 0 0 0 0 0
FullNghs:  2.58399e+07 ave 2.58399e+07 max 2.58399e+07 min
Histogram: 1 0 0 0 0 0 0 0 0 0

Total # of neighbors = 25839896
Ave neighs/atom = 239.2583
Neighbor list builds = 477
Dangerous builds = 0
unfix           cool1

# Equilibrate at 293K (NPT)
print ">>> Equilibrating at 293K (NPT)..."
>>> Equilibrating at 293K (NPT)...
fix             eq1_npt all npt temp 293.0 293.0 0.1 iso 0.0 0.0 1.0
run             30000
Per MPI rank memory allocation (min/avg/max) = 31.25 | 31.25 | 31.25 Mbytes
   Step          Temp          Press          PotEng         KinEng         TotEng         Volume        Density          CPU      
     60000   299.9566       9.2176052     -300774.85      4187.3841     -296587.47      2048374.1      6.1043525      0            
     60500   293.38228     -93.701701     -300919.96      4095.6068     -296824.36      2046919.4      6.1086908      1.1795932    
     61000   291.82315     -45.357644     -300970.31      4073.8413     -296896.47      2046433.6      6.1101408      2.3657294    
     61500   293.79433      88.619946     -300987.23      4101.359      -296885.87      2045969.3      6.1115273      3.5502315    
     62000   293.08943      234.08609     -301003.61      4091.5185     -296912.09      2045011.8      6.1143891      4.737035     
     62500   292.3492      -242.78119     -300977.93      4081.1851     -296896.74      2046719.8      6.1092866      5.9220446    
     63000   292.80027      2.0539306     -301001.08      4087.4819     -296913.6       2046411.6      6.1102067      7.1152201    
     63500   293.41862      116.62922     -301010.54      4096.1141     -296914.43      2045517        6.1128787      8.3010659    
     64000   292.02603      68.154994     -300998.48      4076.6736     -296921.81      2045689.3      6.112364       9.4875695    
     64500   293.18371      34.330317     -300993.72      4092.8348     -296900.89      2045822.5      6.1119661      10.671059    
     65000   292.13192     -34.569481     -300961.1       4078.1517     -296882.95      2046637.1      6.1095332      11.865386    
     65500   292.61963      105.48851     -300984.38      4084.9602     -296899.42      2045804.7      6.1120193      13.048244    
     66000   293.65154      107.16784     -300993.66      4099.3656     -296894.3       2045696.1      6.1123437      14.236066    
     66500   293.05618     -326.68802     -300976.58      4091.0544     -296885.52      2046751.2      6.1091927      15.420637    
     67000   292.94981      64.563994     -300977.9       4089.5695     -296888.33      2045618.1      6.1125767      16.610762    
     67500   293.56889      217.07999     -300972.72      4098.2118     -296874.5       2045851.7      6.1118787      17.794527    
     68000   292.24665     -130.99741     -300982.07      4079.7534     -296902.32      2046448.5      6.1100965      18.982451    
     68500   292.83813      163.40932     -300981.86      4088.0105     -296893.85      2046161        6.1109548      20.166709    
     69000   293.28817     -51.979888     -300985.58      4094.293      -296891.29      2046348.6      6.1103947      21.35652     
     69500   293.44983      27.438696     -300988.5       4096.5498     -296891.95      2046139.9      6.1110179      22.540147    
     70000   293.36733      117.29593     -300997.09      4095.3981     -296901.69      2045628.6      6.1125453      23.733396    
     70500   292.79123     -83.850545     -300991.44      4087.3558     -296904.08      2046600.7      6.1096419      24.918439    
     71000   293.24685     -69.174009     -300997.31      4093.7161     -296903.59      2046415.9      6.1101936      26.105092    
     71500   293.66853      1.2829814     -300996.05      4099.6028     -296896.45      2046027.1      6.1113549      27.288877    
     72000   293.39652     -1.0596942     -300988.37      4095.8056     -296892.56      2045904.5      6.1117212      28.477735    
     72500   293.45741     -20.863563     -301005.1       4096.6556     -296908.44      2045970.9      6.1115225      29.662898    
     73000   292.52107      32.840235     -300979.9       4083.5842     -296896.31      2045976.2      6.1115068      30.849596    
     73500   292.9743       115.90603     -300990.94      4089.9114     -296901.03      2045670.8      6.1124193      32.03489     
     74000   294.78144      116.1943      -301005.49      4115.1389     -296890.35      2045832.7      6.1119355      33.225146    
     74500   293.48184     -263.70967     -300995.86      4096.9966     -296898.86      2046963.9      6.1085581      34.410798    
     75000   293.93156     -8.7807453     -300999.16      4103.2747     -296895.88      2045952.3      6.1115781      35.605481    
     75500   293.63133      286.74853     -300992.43      4099.0835     -296893.35      2045427.3      6.1131469      36.791794    
     76000   293.04395      44.629626     -301002.43      4090.8837     -296911.55      2046030.9      6.1113435      37.979282    
     76500   291.94658      34.050703     -300987.31      4075.5645     -296911.74      2046029.1      6.1113487      39.164405    
     77000   292.88134      94.186414     -300997.09      4088.6137     -296908.47      2045807.1      6.1120121      40.352756    
     77500   292.63932     -130.66605     -300993.47      4085.235      -296908.23      2045943.4      6.1116047      41.53761     
     78000   293.11499      88.240143     -300975.68      4091.8754     -296883.81      2045726.7      6.1122521      42.726126    
     78500   292.81953     -129.91483     -300994.22      4087.7509     -296906.47      2046441.9      6.110116       43.915666    
     79000   293.90472      112.91758     -300995.84      4102.9        -296892.94      2046066.8      6.1112363      45.10222     
     79500   293.07872      93.199722     -300994.16      4091.3692     -296902.8       2045634.3      6.1125284      46.286979    
     80000   293.42586      132.44917     -300997.43      4096.2152     -296901.21      2045849.8      6.1118844      47.472573    
     80500   292.34636      113.72059     -301018.03      4081.1454     -296936.88      2045430.8      6.1131365      48.656948    
     81000   293.995       -90.248146     -300989.21      4104.1604     -296885.05      2046284.8      6.1105852      49.844147    
     81500   293.01698     -10.536817     -300997.97      4090.5072     -296907.46      2045809.8      6.112004       51.026694    
     82000   292.12427      97.721276     -300987.04      4078.0449     -296909         2045761.3      6.1121488      52.219624    
     82500   292.23021     -199.88562     -300983.58      4079.5239     -296904.05      2046781.4      6.1091025      53.403376    
     83000   293.89985     -182.53992     -300999.53      4102.832      -296896.7       2046517.8      6.1098894      54.590102    
     83500   293.16915      55.622929     -300997.58      4092.6314     -296904.95      2045530.5      6.1128385      55.77071     
     84000   293.821        27.08604      -300997.56      4101.7312     -296895.82      2045854.9      6.1118693      56.961936    
     84500   293.16951     -130.4674      -301003.39      4092.6366     -296910.76      2045945.5      6.1115984      58.144544    
     85000   292.67519     -0.37657558    -301003.68      4085.7358     -296917.94      2045654.5      6.1124679      59.33051     
     85500   292.4368       83.961195     -300993.04      4082.4079     -296910.63      2045843.8      6.1119024      60.514155    
     86000   294.22908      179.30367     -301010.84      4107.4281     -296903.41      2045444.9      6.1130942      61.700196    
     86500   293.23432     -84.54528      -301007.41      4093.5412     -296913.87      2045774.4      6.1121098      62.884286    
     87000   294.53873     -231.26787     -301011.53      4111.7508     -296899.78      2046169.1      6.1109308      64.072857    
     87500   292.77275      97.370186     -300997.96      4087.0977     -296910.86      2045299.8      6.1135281      65.257938    
     88000   293.22412     -97.619618     -301014.85      4093.3988     -296921.45      2046005.6      6.111419       66.446716    
     88500   292.5467       94.444569     -300979.93      4083.9421     -296895.99      2045938.1      6.1116206      67.630525    
     89000   293.6429      -155.96759     -301008.66      4099.245      -296909.42      2046440.2      6.1101212      68.816523    
     89500   293.95278      127.08687     -301003.15      4103.5709     -296899.58      2045375.8      6.1133007      70.001392    
     90000   293.10081      247.32786     -301000.99      4091.6775     -296909.32      2045255.3      6.113661       71.196555    
Loop time of 71.1966 on 1 procs for 30000 steps with 108000 atoms

Performance: 36.406 ns/day, 0.659 hours/ns, 421.369 timesteps/s, 45.508 Matom-step/s
100.0% CPU use with 1 MPI tasks x 1 OpenMP threads

MPI task timing breakdown:
Section |  min time  |  avg time  |  max time  |%varavg| %total
---------------------------------------------------------------
Pair    | 61.782     | 61.782     | 61.782     |   0.0 | 86.78
Neigh   | 0.65355    | 0.65355    | 0.65355    |   0.0 |  0.92
Comm    | 0.83709    | 0.83709    | 0.83709    |   0.0 |  1.18
Output  | 0.021657   | 0.021657   | 0.021657   |   0.0 |  0.03
Modify  | 6.4354     | 6.4354     | 6.4354     |   0.0 |  9.04
Other   |            | 1.467      |            |       |  2.06

Nlocal:         108000 ave      108000 max      108000 min
Histogram: 1 0 0 0 0 0 0 0 0 0
Nghost:          61575 ave       61575 max       61575 min
Histogram: 1 0 0 0 0 0 0 0 0 0
Neighs:              0 ave           0 max           0 min
Histogram: 1 0 0 0 0 0 0 0 0 0
FullNghs:  2.58668e+07 ave 2.58668e+07 max 2.58668e+07 min
Histogram: 1 0 0 0 0 0 0 0 0 0

Total # of neighbors = 25866790
Ave neighs/atom = 239.50731
Neighbor list builds = 248
Dangerous builds = 0

variable        dens1 equal density
print "Density at 293K: ${dens1} g/cm^3 (Target: ~6.0-6.1)"
Density at 293K: 6.11366097359989 g/cm^3 (Target: ~6.0-6.1)
unfix           eq1_npt

# Final equilibration (NVT)
print ">>> Final equilibration at 293K (NVT)..."
>>> Final equilibration at 293K (NVT)...
fix             eq1_nvt all nvt temp 293.0 293.0 0.1
run             20000
Per MPI rank memory allocation (min/avg/max) = 31.25 | 31.25 | 31.25 Mbytes
   Step          Temp          Press          PotEng         KinEng         TotEng         Volume        Density          CPU      
     90000   293.10081      247.32786     -301000.99      4091.6775     -296909.32      2045255.3      6.113661       0            
     90500   293.03421      173.7552      -300999.07      4090.7478     -296908.33      2045255.3      6.113661       1.118908     
     91000   293.06167      225.81806     -301002.87      4091.1311     -296911.74      2045255.3      6.113661       2.24262      
     91500   292.70761      168.15662     -301009.44      4086.1884     -296923.25      2045255.3      6.113661       3.3623678    
     92000   292.64597      183.87318     -300990.36      4085.3279     -296905.04      2045255.3      6.113661       4.479126     
     92500   293.67546      108.91919     -300991.37      4099.6995     -296891.67      2045255.3      6.113661       5.6010627    
     93000   293.4137       122.29609     -301000.68      4096.0454     -296904.63      2045255.3      6.113661       6.7204395    
     93500   293.88489      152.78288     -301003.69      4102.6232     -296901.07      2045255.3      6.113661       7.8435277    
     94000   293.048        184.09248     -301010.98      4090.9402     -296920.04      2045255.3      6.113661       8.9694223    
     94500   293.47377      137.23926     -301016.87      4096.884      -296919.99      2045255.3      6.113661       10.084918    
     95000   292.98807      264.85192     -301007.67      4090.1037     -296917.56      2045255.3      6.113661       11.201813    
     95500   293.20217      92.391845     -301005.55      4093.0924     -296912.46      2045255.3      6.113661       12.318274    
     96000   291.54099      227.72425     -301003.53      4069.9024     -296933.62      2045255.3      6.113661       13.436222    
     96500   293.71602      238.16767     -300996.4       4100.2658     -296896.13      2045255.3      6.113661       14.556567    
     97000   293.09479      125.75768     -301009.16      4091.5934     -296917.57      2045255.3      6.113661       15.680475    
     97500   292.79001      147.57282     -300993.64      4087.3387     -296906.3       2045255.3      6.113661       16.799776    
     98000   294.07782      215.9871      -301002.57      4105.3165     -296897.26      2045255.3      6.113661       17.921201    
     98500   293.40455      215.53143     -301005.5       4095.9177     -296909.59      2045255.3      6.113661       19.03893     
     99000   294.3745       175.65901     -301014.81      4109.4581     -296905.35      2045255.3      6.113661       20.162638    
     99500   293.05749      225.15037     -300997.13      4091.0727     -296906.06      2045255.3      6.113661       21.289538    
    100000   294.03279      126.97292     -301018.46      4104.6879     -296913.77      2045255.3      6.113661       22.410822    
    100500   292.73741      126.13864     -300989.07      4086.6043     -296902.46      2045255.3      6.113661       23.528765    
    101000   292.9343       276.11194     -300984.11      4089.3529     -296894.76      2045255.3      6.113661       24.650912    
    101500   293.08139      118.82215     -300998.04      4091.4064     -296906.63      2045255.3      6.113661       25.774922    
    102000   293.25189      182.15476     -300997.81      4093.7866     -296904.02      2045255.3      6.113661       26.896544    
    102500   292.73071      240.57467     -300993.95      4086.5109     -296907.44      2045255.3      6.113661       28.016762    
    103000   293.13693      156.92655     -301002.46      4092.1817     -296910.28      2045255.3      6.113661       29.134964    
    103500   293.31669      151.9214      -301008.85      4094.6912     -296914.15      2045255.3      6.113661       30.256266    
    104000   292.87746      92.788977     -301014.69      4088.5594     -296926.13      2045255.3      6.113661       31.376585    
    104500   292.78599      147.91843     -300995.45      4087.2825     -296908.16      2045255.3      6.113661       32.496037    
    105000   292.4013       248.49445     -301002.56      4081.9124     -296920.65      2045255.3      6.113661       33.629811    
    105500   293.02491      349.8868      -300989.07      4090.6179     -296898.45      2045255.3      6.113661       34.747754    
    106000   293.35007      210.29298     -301008.49      4095.1571     -296913.33      2045255.3      6.113661       35.867548    
    106500   292.80753      214.32769     -300996.83      4087.5832     -296909.25      2045255.3      6.113661       36.985899    
    107000   293.05187      157.57994     -301009.55      4090.9943     -296918.56      2045255.3      6.113661       38.106822    
    107500   293.01154      280.83085     -301004.98      4090.4312     -296914.55      2045255.3      6.113661       39.227188    
    108000   293.22713      148.93872     -301014.7       4093.4408     -296921.26      2045255.3      6.113661       40.349967    
    108500   293.52801      182.06832     -301007.11      4097.6412     -296909.46      2045255.3      6.113661       41.475279    
    109000   293.93787      198.77143     -301011.16      4103.3627     -296907.8       2045255.3      6.113661       42.590748    
    109500   292.51468      134.74979     -301006.44      4083.4951     -296922.95      2045255.3      6.113661       43.708959    
    110000   293.91085      163.6243      -301015.6       4102.9856     -296912.61      2045255.3      6.113661       44.824602    
Loop time of 44.8246 on 1 procs for 20000 steps with 108000 atoms

Performance: 38.550 ns/day, 0.623 hours/ns, 446.183 timesteps/s, 48.188 Matom-step/s
100.0% CPU use with 1 MPI tasks x 1 OpenMP threads

MPI task timing breakdown:
Section |  min time  |  avg time  |  max time  |%varavg| %total
---------------------------------------------------------------
Pair    | 17.421     | 17.421     | 17.421     |   0.0 | 38.87
Neigh   | 0.42866    | 0.42866    | 0.42866    |   0.0 |  0.96
Comm    | 0.56438    | 0.56438    | 0.56438    |   0.0 |  1.26
Output  | 0.014352   | 0.014352   | 0.014352   |   0.0 |  0.03
Modify  | 25.437     | 25.437     | 25.437     |   0.0 | 56.75
Other   |            | 0.9588     |            |       |  2.14

Nlocal:         108000 ave      108000 max      108000 min
Histogram: 1 0 0 0 0 0 0 0 0 0
Nghost:          61684 ave       61684 max       61684 min
Histogram: 1 0 0 0 0 0 0 0 0 0
Neighs:              0 ave           0 max           0 min
Histogram: 1 0 0 0 0 0 0 0 0 0
FullNghs:  2.58682e+07 ave 2.58682e+07 max 2.58682e+07 min
Histogram: 1 0 0 0 0 0 0 0 0 0

Total # of neighbors = 25868210
Ave neighs/atom = 239.52046
Neighbor list builds = 163
Dangerous builds = 0
unfix           eq1_nvt

# Production run with data collection
print ">>> Production run at 293K..."
>>> Production run at 293K...

compute         msd1 all msd
compute         rdf1 all rdf 100 1 1 cutoff 8.0

dump            d1 all custom 2000 dump_293K.lammpstrj id type x y z
dump_modify     d1 sort id

fix             rdf1_out all ave/time 100 1 100 c_rdf1[*] file rdf_293K.dat mode vector
fix             msd1_out all ave/time 10 100 1000 c_msd1[4] file msd_293K.dat

# FIX: Use thermo keywords directly
fix             thermo1 all print 1 "$(step) $(temp) $(press) $(pe) $(ke) $(etotal) $(vol) $(density)"                 file thermo_293K.dat screen no title                 "# Step Temp Press PE KE TotEng Vol Density"

fix             prod1 all nvt temp 293.0 293.0 0.1
thermo          200
run             50000
Neighbor list info ...
  update: every = 1 steps, delay = 0 steps, check = yes
  max neighbors/atom: 2000, page size: 100000
  master list distance cutoff = 10.3
  ghost atom cutoff = 10.3
  binsize = 4, bins = 32 32 32
  2 neighbor lists, perpetual/occasional/extra = 1 1 0
  (1) pair eam/alloy/kk, perpetual
      attributes: full, newton off, kokkos_device
      pair build: full/bin/kk/device
      stencil: full/bin/3d
      bin: kk/device
  (2) compute rdf, occasional
      attributes: half, newton off
      pair build: half/bin/atomonly/newtoff
      stencil: full/bin/3d
      bin: standard
WARNING: Fix STORE/ATOM not compatible with Kokkos sorting on device (src/KOKKOS/atom_kokkos.cpp:212)
WARNING: Fix with atom-based arrays not compatible with Kokkos sorting on device, switching to classic host sorting (src/KOKKOS/atom_kokkos.cpp:218)
Per MPI rank memory allocation (min/avg/max) = 95.07 | 95.07 | 95.07 Mbytes
   Step          Temp          Press          PotEng         KinEng         TotEng         Volume        Density          CPU      
    110000   293.91085      163.6243      -301015.6       4102.9856     -296912.61      2045255.3      6.113661       0            
    110200   292.43603      89.007455     -301007.1       4082.3972     -296924.7       2045255.3      6.113661       2.0743888    
    110400   293.05933      210.99684     -300998.55      4091.0985     -296907.45      2045255.3      6.113661       4.7429348    
    110600   292.2463       241.59916     -300989.41      4079.7485     -296909.67      2045255.3      6.113661       6.8262669    
    110800   294.36502      101.59946     -301015.94      4109.3258     -296906.61      2045255.3      6.113661       9.5029014    
    111000   293.84214      69.824338     -301014.83      4102.0264     -296912.8       2045255.3      6.113661       12.184982    
    111200   294.4702       90.818038     -301009.69      4110.7941     -296898.9       2045255.3      6.113661       14.2624      
    111400   292.70716      196.00132     -301002.46      4086.1821     -296916.28      2045255.3      6.113661       16.92935     
    111600   292.82792      158.45382     -300987.96      4087.8679     -296900.09      2045255.3      6.113661       19.595866    
    111800   293.40351      110.21272     -301015.35      4095.9031     -296919.45      2045255.3      6.113661       21.675362    
    112000   293.3941       16.085318     -301015.19      4095.7718     -296919.42      2045255.3      6.113661       24.353911    
    112200   293.36448      71.201416     -301006.14      4095.3582     -296910.78      2045255.3      6.113661       26.522235    
    112400   293.89321      163.1258      -300997.5       4102.7394     -296894.76      2045255.3      6.113661       29.188689    
    112600   292.51709      241.22279     -300989.53      4083.5287     -296906         2045255.3      6.113661       31.85938     
    112800   293.38669      121.16213     -301010.82      4095.6683     -296915.16      2045255.3      6.113661       33.941992    
    113000   292.79448      185.25349     -301006.49      4087.4011     -296919.09      2045255.3      6.113661       36.620541    
    113200   294.52969      216.6585      -300992.65      4111.6246     -296881.03      2045255.3      6.113661       38.695671    
    113400   292.63508      245.62172     -300983.53      4085.1759     -296898.35      2045255.3      6.113661       41.360628    
    113600   293.05544      215.43863     -301001.07      4091.0441     -296910.02      2045255.3      6.113661       44.03019     
    113800   292.40567      190.16353     -301004.7       4081.9733     -296922.73      2045255.3      6.113661       46.113038    
    114000   293.37149      232.88129     -300992.43      4095.4561     -296896.98      2045255.3      6.113661       48.790956    
    114200   292.91892      206.36006     -300990.05      4089.1383     -296900.91      2045255.3      6.113661       51.541647    
    114400   293.36558      62.748307     -301009.23      4095.3736     -296913.86      2045255.3      6.113661       53.616016    
    114600   293.64062      91.172437     -301013.81      4099.2132     -296914.6       2045255.3      6.113661       56.282701    
    114800   292.77511      243.94255     -301009.73      4087.1307     -296922.59      2045255.3      6.113661       58.361606    
    115000   293.52111      206.72748     -300998.51      4097.5448     -296900.96      2045255.3      6.113661       61.038704    
    115200   293.57801      121.53347     -301011.49      4098.3391     -296913.15      2045255.3      6.113661       63.111726    
    115400   293.22955      83.028987     -301006.52      4093.4746     -296913.05      2045255.3      6.113661       65.772532    
    115600   291.63868      295.0769      -301002.45      4071.2662     -296931.18      2045255.3      6.113661       68.440166    
    115800   294.25073      177.17548     -301003.98      4107.7302     -296896.25      2045255.3      6.113661       70.521148    
    116000   293.18745      255.19879     -300995.26      4092.887      -296902.37      2045255.3      6.113661       73.198872    
    116200   293.75528      182.06892     -301013.12      4100.8138     -296912.31      2045255.3      6.113661       75.954539    
    116400   292.20556      102.30965     -300993.48      4079.1797     -296914.3       2045255.3      6.113661       78.032366    
    116600   292.89127      271.52138     -300984.72      4088.7523     -296895.96      2045255.3      6.113661       80.701948    
    116800   293.29791      171.38143     -300990.7       4094.429      -296896.27      2045255.3      6.113661       83.377716    
    117000   292.93922      149.84275     -300994.58      4089.4217     -296905.16      2045255.3      6.113661       85.460214    
    117200   293.86417      137.60154     -301005.06      4102.3339     -296902.73      2045255.3      6.113661       88.118439    
    117400   293.08723      162.30995     -300997.89      4091.4878     -296906.4       2045255.3      6.113661       90.192234    
    117600   293.20005      109.53822     -300991.7       4093.0628     -296898.64      2045255.3      6.113661       92.860911    
    117800   292.31998      374.27997     -300995.72      4080.7771     -296914.94      2045255.3      6.113661       95.531287    
    118000   293.39087      237.71685     -300993.93      4095.7267     -296898.21      2045255.3      6.113661       98.206567    
    118200   292.78483      221.90476     -301000.8       4087.2664     -296913.54      2045255.3      6.113661       100.37487    
    118400   292.81862      156.30792     -300998.74      4087.7381     -296911         2045255.3      6.113661       103.03541    
    118600   292.98811      212.98555     -301009.94      4090.1041     -296919.84      2045255.3      6.113661       105.11231    
    118800   291.75968      89.196274     -301013.03      4072.9554     -296940.08      2045255.3      6.113661       107.78589    
    119000   292.92611      116.09989     -301013.83      4089.2387     -296924.6       2045255.3      6.113661       110.46105    
    119200   293.9071       176.14619     -300997.25      4102.9333     -296894.31      2045255.3      6.113661       112.53633    
    119400   293.98278      159.68225     -301000.14      4103.9898     -296896.15      2045255.3      6.113661       115.19842    
    119600   293.28888      267.29241     -300997.85      4094.3029     -296903.55      2045255.3      6.113661       117.8636     
    119800   292.97535      61.535799     -301000.34      4089.926      -296910.41      2045255.3      6.113661       119.94646    
    120000   292.11698      164.5667      -301006.98      4077.9432     -296929.04      2045255.3      6.113661       122.62342    
    120200   293.3739       120.07855     -301002.12      4095.4897     -296906.63      2045255.3      6.113661       124.79191    
    120400   293.96264      262.0349      -300977.87      4103.7086     -296874.17      2045255.3      6.113661       127.45297    
    120600   294.4056       207.2908      -301012.16      4109.8923     -296902.27      2045255.3      6.113661       129.52884    
    120800   292.87193      199.0812      -301002.6       4088.4823     -296914.11      2045255.3      6.113661       132.20025    
    121000   293.23136      58.92778      -300996.21      4093.5        -296902.71      2045255.3      6.113661       134.87503    
    121200   292.77761      136.70316     -300997.16      4087.1656     -296909.99      2045255.3      6.113661       136.95265    
    121400   291.66206      61.259225     -300997.06      4071.5925     -296925.47      2045255.3      6.113661       139.6162     
    121600   294.86736      200.67694     -301000.9       4116.3385     -296884.56      2045255.3      6.113661       141.69679    
    121800   293.11316      109.48709     -300997.31      4091.8499     -296905.46      2045255.3      6.113661       144.36809    
    122000   292.97665      106.58429     -300998.9       4089.9441     -296908.96      2045255.3      6.113661       147.04217    
    122200   292.93022      118.46563     -300998.93      4089.296      -296909.64      2045255.3      6.113661       149.21144    
    122400   292.59844      220.4506      -301000.97      4084.6644     -296916.3       2045255.3      6.113661       151.87412    
    122600   293.77517      165.85122     -301003.78      4101.0914     -296902.69      2045255.3      6.113661       153.9516     
    122800   292.56174      241.06825     -300992.33      4084.152      -296908.18      2045255.3      6.113661       156.62453    
    123000   292.78004      142.14295     -301005.89      4087.1995     -296918.69      2045255.3      6.113661       159.29924    
    123200   294.33696      239.70302     -301002.77      4108.9341     -296893.83      2045255.3      6.113661       161.37277    
    123400   292.09229      294.44124     -300985.66      4077.5985     -296908.07      2045255.3      6.113661       164.035      
    123600   293.22643      168.17505     -300999.43      4093.4311     -296906         2045255.3      6.113661       166.71226    
    123800   292.97675      332.53065     -300999.61      4089.9456     -296909.66      2045255.3      6.113661       168.79207    
    124000   292.85527      189.24422     -300990.5       4088.2498     -296902.25      2045255.3      6.113661       171.46812    
    124200   292.44801      256.68099     -300991.95      4082.5644     -296909.38      2045255.3      6.113661       174.22012    
    124400   292.60735      266.80769     -301005.22      4084.7887     -296920.43      2045255.3      6.113661       176.2938     
    124600   294.0918       283.93718     -300998.96      4105.5116     -296893.45      2045255.3      6.113661       178.96204    
    124800   293.67965     -18.665295     -301014.17      4099.7581     -296914.41      2045255.3      6.113661       181.63704    
    125000   293.09674      118.22924     -300993.56      4091.6206     -296901.94      2045255.3      6.113661       183.71942    
    125200   293.11973      218.12318     -300997.66      4091.9416     -296905.72      2045255.3      6.113661       186.37889    
    125400   293.70482      175.6996      -301004.11      4100.1095     -296904         2045255.3      6.113661       188.45068    
    125600   292.2918       165.84143     -300987.23      4080.3837     -296906.85      2045255.3      6.113661       191.11787    
    125800   292.7947       133.31646     -301003.49      4087.4042     -296916.09      2045255.3      6.113661       193.78981    
    126000   293.89817      155.95853     -300983.44      4102.8086     -296880.63      2045255.3      6.113661       195.88171    
    126200   293.23477      215.60067     -300977.35      4093.5476     -296883.8       2045255.3      6.113661       198.63592    
    126400   293.47084      204.28539     -300990.16      4096.843      -296893.32      2045255.3      6.113661       201.30138    
    126600   291.89076      225.00949     -300976.63      4074.7852     -296901.84      2045255.3      6.113661       203.37517    
    126800   294.26106      206.3873      -300994.69      4107.8745     -296886.82      2045255.3      6.113661       206.0468     
    127000   293.85328      110.76719     -301002.91      4102.1819     -296900.73      2045255.3      6.113661       208.72339    
    127200   292.554        257.68062     -300997.19      4084.044      -296913.15      2045255.3      6.113661       210.80113    
    127400   292.90803      169.3467      -300997.46      4088.9862     -296908.48      2045255.3      6.113661       213.46273    
    127600   293.26017      225.04084     -300998.84      4093.9021     -296904.94      2045255.3      6.113661       216.12885    
    127800   293.28346      116.29775     -301000.79      4094.2273     -296906.56      2045255.3      6.113661       218.20836    
    128000   293.18845      191.65792     -300990.15      4092.901      -296897.25      2045255.3      6.113661       220.88364    
    128200   292.97268      123.92207     -300996.76      4089.8888     -296906.87      2045255.3      6.113661       223.04776    
    128400   293.24625      160.10045     -300993.15      4093.7078     -296899.44      2045255.3      6.113661       225.71139    
    128600   292.33918      140.82736     -300992.66      4081.0452     -296911.61      2045255.3      6.113661       228.3796     
    128800   293.91629      57.13395      -301014.07      4103.0615     -296911.01      2045255.3      6.113661       230.46128    
    129000   292.7933       97.285339     -301006.74      4087.3847     -296919.35      2045255.3      6.113661       233.1391     
    129200   293.60956      131.88825     -301015.75      4098.7797     -296916.97      2045255.3      6.113661       235.79933    
    129400   292.54339      86.513608     -301001.79      4083.8959     -296917.89      2045255.3      6.113661       237.87336    
    129600   293.67091      186.19822     -300997.99      4099.6361     -296898.36      2045255.3      6.113661       240.53903    
    129800   292.39208      129.26266     -300998.22      4081.7835     -296916.43      2045255.3      6.113661       243.2091     
    130000   293.76924      155.60278     -300992.89      4101.0088     -296891.88      2045255.3      6.113661       245.29116    
    130200   293.84677      129.33533     -301003.78      4102.0911     -296901.69      2045255.3      6.113661       248.04443    
    130400   294.19154      205.99883     -300995.69      4106.904      -296888.79      2045255.3      6.113661       250.12285    
    130600   292.64456      266.40902     -300995.93      4085.3082     -296910.62      2045255.3      6.113661       252.79254    
    130800   293.10379      114.31528     -301001.56      4091.7191     -296909.84      2045255.3      6.113661       254.87064    
    131000   292.92167      218.22275     -301007.27      4089.1767     -296918.1       2045255.3      6.113661       257.55584    
    131200   293.0398       167.72401     -300988.91      4090.8258     -296898.08      2045255.3      6.113661       260.21673    
    131400   292.5096       235.85374     -300998.96      4083.4242     -296915.54      2045255.3      6.113661       262.8788     
    131600   293.41812      169.75508     -300987.71      4096.1071     -296891.6       2045255.3      6.113661       264.95531    
    131800   293.0932       149.28398     -300996.78      4091.5713     -296905.21      2045255.3      6.113661       267.62974    
    132000   293.22137      286.21831     -301002.76      4093.3605     -296909.4       2045255.3      6.113661       270.30633    
    132200   292.82156      213.6675      -301000.26      4087.7792     -296912.48      2045255.3      6.113661       272.47285    
    132400   293.30421      274.74202     -300999         4094.517      -296904.48      2045255.3      6.113661       275.13435    
    132600   293.44224      238.1425      -300998.22      4096.4438     -296901.78      2045255.3      6.113661       277.80332    
    132800   293.51743      234.34398     -301004.53      4097.4935     -296907.04      2045255.3      6.113661       279.88154    
    133000   292.49988      183.34164     -300989.08      4083.2885     -296905.8       2045255.3      6.113661       282.5585     
    133200   294.04572      125.96504     -301006.21      4104.8684     -296901.34      2045255.3      6.113661       285.22048    
    133400   293.16489      267.03731     -300999.6       4092.572      -296907.02      2045255.3      6.113661       287.30713    
    133600   293.13634      188.2238      -301002.73      4092.1735     -296910.56      2045255.3      6.113661       289.97651    
    133800   293.12011      152.1654      -300994.95      4091.9469     -296903.01      2045255.3      6.113661       292.64817    
    134000   293.53489      151.11562     -301012.18      4097.7373     -296914.45      2045255.3      6.113661       294.73344    
    134200   293.60196      213.75801     -301005.68      4098.6734     -296907.01      2045255.3      6.113661       297.49003    
    134400   293.45852      126.20566     -301015.59      4096.671      -296918.91      2045255.3      6.113661       300.15679    
    134600   294.52184      238.16319     -301014.2       4111.515      -296902.68      2045255.3      6.113661       302.23548    
    134800   293.80593      110.26017     -301011.61      4101.5208     -296910.09      2045255.3      6.113661       304.90691    
    135000   293.43708      248.98681     -301013.76      4096.3718     -296917.39      2045255.3      6.113661       307.58316    
    135200   292.56543      340.55385     -300988.85      4084.2035     -296904.65      2045255.3      6.113661       309.65998    
    135400   293.65591      160.33559     -300993.37      4099.4267     -296893.95      2045255.3      6.113661       312.32071    
    135600   292.57126      190.57216     -301001.37      4084.2849     -296917.08      2045255.3      6.113661       314.98498    
    135800   294.52817      214.1092      -300999.33      4111.6034     -296887.72      2045255.3      6.113661       317.664      
    136000   293.6167       171.9555      -300997.62      4098.8793     -296898.74      2045255.3      6.113661       319.74576    
    136200   293.19641      199.27798     -301007.48      4093.012      -296914.46      2045255.3      6.113661       322.4958     
    136400   292.66256      119.9397      -301001.93      4085.5595     -296916.37      2045255.3      6.113661       324.57044    
    136600   293.55351      151.3213      -301013.25      4097.9971     -296915.25      2045255.3      6.113661       327.23884    
    136800   293.43795      198.02031     -301002.73      4096.3839     -296906.35      2045255.3      6.113661       329.9186     
    137000   292.67014      202.34371     -301002.17      4085.6653     -296916.5       2045255.3      6.113661       332.00234    
    137200   293.31361      230.7197      -300995.28      4094.6481     -296900.63      2045255.3      6.113661       334.66404    
    137400   293.02351      188.91919     -301000.91      4090.5984     -296910.32      2045255.3      6.113661       337.33097    
    137600   293.2352       143.6096      -301009.87      4093.5536     -296916.32      2045255.3      6.113661       339.41197    
    137800   292.32593      196.15012     -300998.38      4080.8602     -296917.52      2045255.3      6.113661       342.08385    
    138000   293.79555      317.73935     -300991.69      4101.376      -296890.31      2045255.3      6.113661       344.16706    
    138200   293.56106      256.89891     -301011.04      4098.1026     -296912.93      2045255.3      6.113661       346.92117    
    138400   292.82093      136.01844     -301007.65      4087.7704     -296919.88      2045255.3      6.113661       349.58589    
    138600   293.15446      99.680356     -300998.66      4092.4264     -296906.24      2045255.3      6.113661       351.66434    
    138800   292.8049       188.56338     -301020.5       4087.5465     -296932.96      2045255.3      6.113661       354.3376     
    139000   292.39106      255.83767     -300991.88      4081.7694     -296910.11      2045255.3      6.113661       356.42104    
    139200   293.29696      247.02046     -300994.9       4094.4157     -296900.48      2045255.3      6.113661       359.081      
    139400   293.3357       344.65413     -300996.27      4094.9565     -296901.32      2045255.3      6.113661       361.7468     
    139600   292.42215      134.74346     -300997.14      4082.2034     -296914.94      2045255.3      6.113661       363.82647    
    139800   293.10951      38.162684     -300994         4091.7988     -296902.2       2045255.3      6.113661       366.50036    
    140000   292.61974      192.7463      -300992.3       4084.9618     -296907.34      2045255.3      6.113661       368.58294    
    140200   292.76224      240.74969     -300996.31      4086.9511     -296909.36      2045255.3      6.113661       371.3378     
    140400   293.21282      247.04915     -300982.9       4093.2411     -296889.66      2045255.3      6.113661       374.00501    
    140600   294.39681      219.85216     -300980.86      4109.7695     -296871.09      2045255.3      6.113661       376.08597    
    140800   292.85305      247.30367     -300986.44      4088.2187     -296898.22      2045255.3      6.113661       378.76076    
    141000   294.45961      254.17554     -301023.99      4110.6463     -296913.35      2045255.3      6.113661       381.4404     
    141200   292.91934      273.56482     -301009.59      4089.1441     -296920.45      2045255.3      6.113661       383.51858    
    141400   292.98993      290.86077     -300995.78      4090.1296     -296905.65      2045255.3      6.113661       386.18323    
    141600   293.21444      89.059129     -301014.12      4093.2637     -296920.86      2045255.3      6.113661       388.85017    
    141800   293.6742       164.64623     -301013.49      4099.6819     -296913.81      2045255.3      6.113661       390.93195    
    142000   293.52796      177.0857      -301024.37      4097.6405     -296926.73      2045255.3      6.113661       393.61006    
    142200   294.51305      50.021119     -301022.02      4111.3923     -296910.63      2045255.3      6.113661       396.36556    
    142400   293.3484       183.18917     -301011.62      4095.1338     -296916.49      2045255.3      6.113661       398.4412     
    142600   293.36433      291.09332     -301015.56      4095.3562     -296920.21      2045255.3      6.113661       401.11047    
    142800   292.86617      161.10604     -301011.9       4088.4019     -296923.5       2045255.3      6.113661       403.78251    
    143000   293.70767      171.42116     -300996.35      4100.1493     -296896.2       2045255.3      6.113661       405.8675     
    143200   292.15685      203.70875     -300991.94      4078.4998     -296913.44      2045255.3      6.113661       408.53184    
    143400   293.80821      197.35292     -301000.46      4101.5528     -296898.91      2045255.3      6.113661       411.19752    
    143600   293.27547      272.32428     -301003.54      4094.1157     -296909.43      2045255.3      6.113661       413.27698    
    143800   292.5324       160.07625     -300995.26      4083.7425     -296911.52      2045255.3      6.113661       415.95301    
    144000   292.0382       95.255664     -301004.46      4076.8435     -296927.62      2045255.3      6.113661       418.03562    
    144200   293.98254      237.16688     -300992.91      4103.9864     -296888.92      2045255.3      6.113661       420.78741    
    144400   292.89277      134.33428     -300988.45      4088.7732     -296899.68      2045255.3      6.113661       423.45493    
    144600   293.32064      152.62114     -300992.54      4094.7463     -296897.79      2045255.3      6.113661       425.53683    
    144800   292.48833      179.14833     -300995.35      4083.1272     -296912.22      2045255.3      6.113661       428.2129     
    145000   293.47613      176.11411     -300989.69      4096.9168     -296892.77      2045255.3      6.113661       430.88783    
    145200   292.61809      113.85111     -300997.06      4084.9387     -296912.12      2045255.3      6.113661       433.54694    
    145400   292.78388      281.30677     -300986.94      4087.2532     -296899.68      2045255.3      6.113661       435.62107    
    145600   292.32571      228.53278     -300995.16      4080.8571     -296914.31      2045255.3      6.113661       438.28886    
    145800   293.21626      211.63454     -300997.76      4093.2891     -296904.47      2045255.3      6.113661       440.96104    
    146000   293.00121      271.73529     -300994.83      4090.287      -296904.54      2045255.3      6.113661       443.04386    
    146200   293.16363      273.6063      -300988.47      4092.5545     -296895.92      2045255.3      6.113661       445.79682    
    146400   292.41819      232.63349     -300999.74      4082.1481     -296917.59      2045255.3      6.113661       447.87131    
    146600   293.29681      166.98231     -301009.17      4094.4136     -296914.76      2045255.3      6.113661       450.54241    
    146800   292.71531      177.11367     -301005.19      4086.296      -296918.9       2045255.3      6.113661       453.21593    
    147000   293.63565      151.00896     -301000.13      4099.1438     -296900.99      2045255.3      6.113661       455.89189    
    147200   293.57086      225.09353     -301014.75      4098.2394     -296916.51      2045255.3      6.113661       457.9694     
    147400   292.96733      282.69151     -301012.33      4089.8141     -296922.52      2045255.3      6.113661       460.63062    
    147600   293.63354      227.27032     -301009.88      4099.1143     -296910.77      2045255.3      6.113661       463.29861    
    147800   292.52129      151.82105     -300986.87      4083.5873     -296903.29      2045255.3      6.113661       465.37786    
    148000   292.77336      0.88911881    -301010.09      4087.1062     -296922.98      2045255.3      6.113661       468.05863    
    148200   292.60811      162.52235     -300998.17      4084.7994     -296913.37      2045255.3      6.113661       470.81147    
    148400   292.97775      188.57831     -300993.97      4089.9596     -296904.02      2045255.3      6.113661       472.88733    
    148600   293.36546      73.20822      -301017.91      4095.372      -296922.54      2045255.3      6.113661       475.55649    
    148800   293.56831      119.53419     -300996.82      4098.2038     -296898.61      2045255.3      6.113661       478.22969    
    149000   292.8317       148.34455     -301000.82      4087.9207     -296912.9       2045255.3      6.113661       480.31264    
    149200   292.84883      213.62606     -300990.08      4088.1599     -296901.92      2045255.3      6.113661       482.97309    
    149400   292.22522      249.1869      -301000.52      4079.4543     -296921.07      2045255.3      6.113661       485.63746    
    149600   292.46472      274.6339      -300992.82      4082.7977     -296910.02      2045255.3      6.113661       487.71759    
    149800   292.43994      207.62978     -301003.67      4082.4518     -296921.22      2045255.3      6.113661       490.39157    
    150000   293.70121      120.29994     -301008.66      4100.0591     -296908.6       2045255.3      6.113661       493.0669     
    150200   293.80179      184.43563     -301010.14      4101.4631     -296908.67      2045255.3      6.113661       495.23505    
    150400   293.49826      304.86934     -301010.77      4097.2258     -296913.55      2045255.3      6.113661       497.89861    
    150600   293.40768      243.34697     -301006.33      4095.9614     -296910.37      2045255.3      6.113661       500.56444    
    150800   293.73961      157.96254     -301008.41      4100.595      -296907.82      2045255.3      6.113661       502.64304    
    151000   294.06669      174.01262     -301004.13      4105.1611     -296898.97      2045255.3      6.113661       505.31639    
    151200   292.97467      202.73833     -300993.15      4089.9166     -296903.24      2045255.3      6.113661       507.9772     
    151400   292.73304      215.11829     -301000.46      4086.5434     -296913.91      2045255.3      6.113661       510.05603    
    151600   292.12712      239.50206     -300996.8       4078.0848     -296918.72      2045255.3      6.113661       512.72886    
    151800   294.3858       316.38457     -301003.26      4109.6159     -296893.64      2045255.3      6.113661       515.40031    
    152000   293.91495      106.41559     -301004.92      4103.0429     -296901.88      2045255.3      6.113661       517.48261    
    152200   293.20306      159.61226     -301003.85      4093.1048     -296910.75      2045255.3      6.113661       520.23361    
    152400   292.46175      209.48144     -300999.92      4082.7562     -296917.17      2045255.3      6.113661       522.30834    
    152600   293.49897      134.02722     -301023.61      4097.2357     -296926.38      2045255.3      6.113661       524.97701    
    152800   292.75454      130.05389     -301006.41      4086.8435     -296919.56      2045255.3      6.113661       527.65053    
    153000   294.06425      150.59565     -301003.34      4105.1271     -296898.21      2045255.3      6.113661       529.73401    
    153200   293.2881       261.71527     -300998.48      4094.2921     -296904.19      2045255.3      6.113661       532.39538    
    153400   293.37093      127.38729     -301012.56      4095.4483     -296917.12      2045255.3      6.113661       534.46956    
    153600   293.34866      189.80567     -300994.28      4095.1374     -296899.14      2045255.3      6.113661       537.13802    
    153800   292.48647      179.19296     -301004.43      4083.1013     -296921.32      2045255.3      6.113661       539.81233    
    154000   292.06759      186.18466     -300990.75      4077.2537     -296913.5       2045255.3      6.113661       541.8963     
    154200   292.64199      156.21367     -300982.64      4085.2723     -296897.37      2045255.3      6.113661       544.64954    
    154400   293.01973      178.76144     -300992.67      4090.5456     -296902.12      2045255.3      6.113661       546.72524    
    154600   294.27529      140.59371     -300991.18      4108.0731     -296883.11      2045255.3      6.113661       549.39467    
    154800   292.31184      223.44175     -300981.4       4080.6635     -296900.73      2045255.3      6.113661       551.48064    
    155000   293.17813      172.09423     -300981.92      4092.7568     -296889.16      2045255.3      6.113661       554.1571     
    155200   293.30499      170.56078     -300988.03      4094.5278     -296893.5       2045255.3      6.113661       556.23361    
    155400   292.67605      273.24804     -300979.31      4085.7479     -296893.57      2045255.3      6.113661       558.89736    
    155600   292.29991      184.57195     -300978.38      4080.4969     -296897.88      2045255.3      6.113661       561.56655    
    155800   292.64815      266.23607     -300986.27      4085.3584     -296900.91      2045255.3      6.113661       563.64559    
    156000   292.62131      214.2183      -300987.92      4084.9836     -296902.93      2045255.3      6.113661       566.32444    
    156200   294.03677      165.3477      -301007.6       4104.7434     -296902.86      2045255.3      6.113661       569.07427    
    156400   293.34587      228.24913     -301004.22      4095.0985     -296909.12      2045255.3      6.113661       571.14971    
    156600   293.30028      228.92034     -301009.47      4094.4621     -296915         2045255.3      6.113661       573.81762    
    156800   293.53999      259.96522     -301000.92      4097.8084     -296903.11      2045255.3      6.113661       575.89766    
    157000   293.58395      251.05742     -301007.4       4098.422      -296908.98      2045255.3      6.113661       578.57297    
    157200   292.91244      238.07004     -300997.75      4089.0479     -296908.7       2045255.3      6.113661       581.23308    
    157400   294.03438      142.12514     -301012.32      4104.7101     -296907.61      2045255.3      6.113661       583.30691    
    157600   292.32791      119.33306     -300990.7       4080.8878     -296909.82      2045255.3      6.113661       585.97577    
    157800   293.69534      264.41909     -301002.2       4099.9771     -296902.23      2045255.3      6.113661       588.6495     
    158000   293.14102      237.30977     -301007.83      4092.2388     -296915.6       2045255.3      6.113661       590.73304    
    158200   292.37927      112.42125     -300997.46      4081.6047     -296915.85      2045255.3      6.113661       593.48395    
    158400   292.92145      269.60856     -300994.7       4089.1737     -296905.52      2045255.3      6.113661       595.55784    
    158600   293.17757      230.579       -300994.08      4092.749      -296901.33      2045255.3      6.113661       598.23083    
    158800   292.96651      121.78116     -300992.66      4089.8026     -296902.86      2045255.3      6.113661       600.90608    
    159000   294.07086      151.70094     -301001.86      4105.2193     -296896.64      2045255.3      6.113661       602.98846    
    159200   293.53959      254.23        -300995.73      4097.8028     -296897.93      2045255.3      6.113661       605.64837    
    159400   292.97343      49.477327     -300996.68      4089.8993     -296906.78      2045255.3      6.113661       608.31076    
    159600   293.23741      275.97358     -300994.73      4093.5843     -296901.15      2045255.3      6.113661       610.38914    
    159800   293.56457      220.49013     -301000.8       4098.1516     -296902.65      2045255.3      6.113661       613.06278    
    160000   292.99339      228.94105     -300996.85      4090.1779     -296906.67      2045255.3      6.113661       615.14477    
Loop time of 615.237 on 1 procs for 50000 steps with 108000 atoms

Performance: 7.022 ns/day, 3.418 hours/ns, 81.269 timesteps/s, 8.777 Matom-step/s
99.5% CPU use with 1 MPI tasks x 1 OpenMP threads

MPI task timing breakdown:
Section |  min time  |  avg time  |  max time  |%varavg| %total
---------------------------------------------------------------
Pair    | 108.92     | 108.92     | 108.92     |   0.0 | 17.70
Neigh   | 1.5725     | 1.5725     | 1.5725     |   0.0 |  0.26
Comm    | 1.6076     | 1.6076     | 1.6076     |   0.0 |  0.26
Output  | 2.529      | 2.529      | 2.529      |   0.0 |  0.41
Modify  | 498.14     | 498.14     | 498.14     |   0.0 | 80.97
Other   |            | 2.469      |            |       |  0.40

Nlocal:         108000 ave      108000 max      108000 min
Histogram: 1 0 0 0 0 0 0 0 0 0
Nghost:          61541 ave       61541 max       61541 min
Histogram: 1 0 0 0 0 0 0 0 0 0
Neighs:    1.40846e+07 ave 1.40846e+07 max 1.40846e+07 min
Histogram: 1 0 0 0 0 0 0 0 0 0
FullNghs:  2.58682e+07 ave 2.58682e+07 max 2.58682e+07 min
Histogram: 1 0 0 0 0 0 0 0 0 0

Total # of neighbors = 25868204
Ave neighs/atom = 239.52041
Neighbor list builds = 408
Dangerous builds = 0
unfix           prod1

# Cleanup
undump          d1
unfix           rdf1_out
unfix           msd1_out
unfix           thermo1
uncompute       msd1
uncompute       rdf1

write_restart   restart_293K.restart
System init for write_restart ...
Neighbor list info ...
  update: every = 1 steps, delay = 0 steps, check = yes
  max neighbors/atom: 2000, page size: 100000
  master list distance cutoff = 10.3
  ghost atom cutoff = 10.3
  binsize = 4, bins = 32 32 32
  1 neighbor lists, perpetual/occasional/extra = 1 0 0
  (1) pair eam/alloy/kk, perpetual
      attributes: full, newton off, kokkos_device
      pair build: full/bin/kk/device
      stencil: full/bin/3d
      bin: kk/device

# Calculate and save summary
variable        temp_final equal temp
variable        dens_final equal density
variable        press_final equal press
variable        pe_final equal pe

[...]
    395600   997.0808      -180.20956     -290113.19      13919.215     -276193.97      2216496.7      5.6413336      337.76877    
    395800   1003.6886     -162.74334     -290189.11      14011.459     -276177.65      2216496.7      5.6413336      340.41013    
    396000   1003.8385     -86.474032     -290093.1       14013.552     -276079.55      2216496.7      5.6413336      343.07645    
    396200   1000.9186     -98.389085     -290067.81      13972.789     -276095.02      2216496.7      5.6413336      345.76259    
    396400   999.36116     -184.25003     -290118.44      13951.048     -276167.39      2216496.7      5.6413336      348.37661    
    396600   1001.2303     -89.984228     -290123.65      13977.141     -276146.51      2216496.7      5.6413336      351.00403    
    396800   1004.0956     -177.52819     -290103.45      14017.141     -276086.31      2216496.7      5.6413336      353.64919    
    397000   1001.6503     -254.02179     -290147.68      13983.005     -276164.68      2216496.7      5.6413336      356.31684    
    397200   1002.2346     -111.71409     -290129.78      13991.161     -276138.61      2216496.7      5.6413336      358.91052    
    397400   1000.7667      87.710825     -290028.45      13970.67      -276057.78      2216496.7      5.6413336      361.52371    
    397600   1003.6615     -234.75062     -290143.85      14011.081     -276132.77      2216496.7      5.6413336      364.15917    
    397800   1001.5754     -249.15572     -290156.04      13981.959     -276174.08      2216496.7      5.6413336      366.80821    
    398000   995.52001     -288.1124      -290158.76      13897.426     -276261.34      2216496.7      5.6413336      369.46884    
    398200   1002.0863     -92.577714     -290116.31      13989.09      -276127.22      2216496.7      5.6413336      372.16594    
    398400   1000.4506     -8.6905504     -290119.2       13966.256     -276152.94      2216496.7      5.6413336      374.77545    
    398600   997.46949     -312.59936     -290183.06      13924.641     -276258.42      2216496.7      5.6413336      377.41261    
    398800   1001.7329     -246.99977     -290138.82      13984.158     -276154.66      2216496.7      5.6413336      380.0639     
    399000   1000.7552     -98.192785     -290101.38      13970.509     -276130.87      2216496.7      5.6413336      382.73434    
    399200   1004.1761     -40.358276     -290096.52      14018.265     -276078.25      2216496.7      5.6413336      385.32688    
    399400   1002.2213     -183.28919     -290152.44      13990.976     -276161.47      2216496.7      5.6413336      387.94141    
    399600   1000.9458     -168.12814     -290138.76      13973.17      -276165.59      2216496.7      5.6413336      390.56627    
    399800   999.08071     -321.77264     -290140.95      13947.133     -276193.82      2216496.7      5.6413336      393.21164    
    400000   1002.0412     -249.74721     -290144.72      13988.462     -276156.26      2216496.7      5.6413336      395.88137    
    400200   994.36655     -165.34368     -290095.19      13881.324     -276213.86      2216496.7      5.6413336      398.56665    
    400400   1001.948      -39.48006      -290096.86      13987.161     -276109.7       2216496.7      5.6413336      401.17931    
    400600   1000.123      -87.479135     -290075.78      13961.683     -276114.09      2216496.7      5.6413336      403.80499    
    400800   1000.2989     -311.77369     -290150.87      13964.139     -276186.73      2216496.7      5.6413336      406.4552     
    401000   999.22459     -178.56723     -290127.64      13949.142     -276178.49      2216496.7      5.6413336      409.11757    
    401200   1000.7126     -199.00615     -290053.12      13969.914     -276083.2       2216496.7      5.6413336      411.71053    
    401400   999.4361      -139.65549     -290095.49      13952.094     -276143.39      2216496.7      5.6413336      414.32314    
    401600   1000.4116     -232.98623     -290101.15      13965.713     -276135.44      2216496.7      5.6413336      416.9491     
    401800   996.39919     -128.02535     -290117.04      13909.699     -276207.34      2216496.7      5.6413336      419.5922     
    402000   998.38889     -168.69233     -290094.6       13937.475     -276157.13      2216496.7      5.6413336      422.26009    
    402200   999.95641     -279.65341     -290122.6       13959.358     -276163.24      2216496.7      5.6413336      424.94719    
    402400   1003.7493     -89.03608      -290106.59      14012.306     -276094.28      2216496.7      5.6413336      427.56111    
    402600   1001.2261     -77.341948     -290120.84      13977.083     -276143.75      2216496.7      5.6413336      430.18815    
    402800   999.58989     -225.88994     -290123.72      13954.241     -276169.48      2216496.7      5.6413336      432.8324     
    403000   1000.1694     -158.78273     -290097.02      13962.331     -276134.68      2216496.7      5.6413336      435.49965    
    403200   999.09712     -184.14271     -290153.83      13947.362     -276206.47      2216496.7      5.6413336      438.09438    
    403400   1002.2735      24.891025     -290106.94      13991.704     -276115.24      2216496.7      5.6413336      440.70926    
    403600   999.48204     -0.46234074    -290078.68      13952.736     -276125.95      2216496.7      5.6413336      443.33628    
    403800   998.91513     -123.53878     -290127.35      13944.822     -276182.53      2216496.7      5.6413336      445.97817    
    404000   1001.8482     -200.46645     -290117.57      13985.767     -276131.81      2216496.7      5.6413336      448.64677    
    404200   1003.4238     -306.00599     -290126.93      14007.763     -276119.17      2216496.7      5.6413336      451.33212    
    404400   999.14744     -97.770811     -290104.48      13948.065     -276156.41      2216496.7      5.6413336      453.94731    
    404600   997.52768     -273.05884     -290150.66      13925.453     -276225.21      2216496.7      5.6413336      456.57305    
    404800   1004.5382     -205.86667     -290151.78      14023.32      -276128.46      2216496.7      5.6413336      459.21645    
    405000   1002.5065     -203.26135     -290145.8       13994.957     -276150.84      2216496.7      5.6413336      461.88331    
    405200   998.73096     -110.8409      -290124.97      13942.251     -276182.72      2216496.7      5.6413336      464.47669    
    405400   1003.7068      32.356895     -290079.04      14011.713     -276067.32      2216496.7      5.6413336      467.09067    
    405600   1000.6547     -196.70951     -290089.7       13969.106     -276120.6       2216496.7      5.6413336      469.71655    
    405800   998.92401     -180.35124     -290136.89      13944.946     -276191.94      2216496.7      5.6413336      472.36369    
    406000   1003.1796     -151.76555     -290115.93      14004.354     -276111.58      2216496.7      5.6413336      475.03457    
    406200   1000.4678     -182.32905     -290105.05      13966.497     -276138.55      2216496.7      5.6413336      477.7223     
    406400   998.9783      -159.79433     -290103.34      13945.703     -276157.64      2216496.7      5.6413336      480.32961    
    406600   1003.4281      69.284098     -290091.66      14007.823     -276083.84      2216496.7      5.6413336      482.9617     
    406800   1001.4687     -242.7071      -290155.43      13980.469     -276174.96      2216496.7      5.6413336      485.60576    
    407000   999.47279     -98.333746     -290147.46      13952.607     -276194.86      2216496.7      5.6413336      488.27289    
    407200   1002.2509      35.119869     -290066.57      13991.389     -276075.18      2216496.7      5.6413336      490.86446    
    407400   998.378       -56.380103     -290077.5       13937.323     -276140.18      2216496.7      5.6413336      493.46959    
    407600   1000.995      -139.19649     -290138.38      13973.857     -276164.53      2216496.7      5.6413336      496.10341    
    407800   994.59032     -235.70363     -290110.05      13884.447     -276225.6       2216496.7      5.6413336      498.74443    
    408000   1000.8492     -197.7175      -290180.86      13971.822     -276209.04      2216496.7      5.6413336      501.41117    
    408200   1003.4647      83.279444     -290084.87      14008.334     -276076.54      2216496.7      5.6413336      504.09829    
    408400   998.04321      3.900584      -290110.94      13932.65      -276178.29      2216496.7      5.6413336      506.70701    
    408600   998.0487      -203.70679     -290107.84      13932.726     -276175.12      2216496.7      5.6413336      509.34031    
    408800   999.10976     -117.17296     -290067.9       13947.539     -276120.36      2216496.7      5.6413336      511.98418    
    409000   1002.2122     -53.591285     -290050.78      13990.849     -276059.93      2216496.7      5.6413336      514.65405    
    409200   998.28596     -165.61224     -290113.38      13936.038     -276177.34      2216496.7      5.6413336      517.24838    
    409400   1003.2222     -105.31553     -290110.86      14004.948     -276105.91      2216496.7      5.6413336      519.8515     
    409600   998.30875     -185.31941     -290137.42      13936.357     -276201.06      2216496.7      5.6413336      522.48444    
    409800   998.45539     -164.51064     -290114.3       13938.404     -276175.89      2216496.7      5.6413336      525.12526    
    410000   998.23486     -256.59861     -290086.04      13935.325     -276150.72      2216496.7      5.6413336      527.78364    
    410200   998.86893     -238.99112     -290157.88      13944.177     -276213.71      2216496.7      5.6413336      530.48221    
    410400   1000.1622     -141.88535     -290129.93      13962.231     -276167.7       2216496.7      5.6413336      533.0934     
    410600   1001.5577     -126.68076     -290117.54      13981.711     -276135.83      2216496.7      5.6413336      535.72981    
    410800   996.64591     -143.63744     -290122.47      13913.143     -276209.32      2216496.7      5.6413336      538.37767    
    411000   1002.5896     -18.163385     -290110.22      13996.117     -276114.1       2216496.7      5.6413336      541.04207    
    411200   995.10359     -145.26667     -290109.95      13891.613     -276218.33      2216496.7      5.6413336      543.64645    
    411400   999.71691     -182.2592      -290110.9       13956.014     -276154.89      2216496.7      5.6413336      546.25787    
    411600   1001.1134     -219.27602     -290139.42      13975.509     -276163.91      2216496.7      5.6413336      548.8933     
    411800   996.43097     -172.10321     -290139.37      13910.143     -276229.23      2216496.7      5.6413336      551.53894    
    412000   1000.254      -88.779298     -290109.76      13963.513     -276146.25      2216496.7      5.6413336      554.2034     
    412200   996.94695     -259.67788     -290179.05      13917.346     -276261.71      2216496.7      5.6413336      556.89768    
    412400   1002.1836     -88.812819     -290124.95      13990.449     -276134.5       2216496.7      5.6413336      559.51063    
    412600   998.29989     -219.00136     -290122.31      13936.233     -276186.08      2216496.7      5.6413336      562.15164    
    412800   999.24528     -407.76468     -290141.9       13949.431     -276192.47      2216496.7      5.6413336      564.79865    
    413000   996.49521     -169.88435     -290125.63      13911.04      -276214.59      2216496.7      5.6413336      567.45969    
    413200   1001.1164     -229.85277     -290168.25      13975.552     -276192.7       2216496.7      5.6413336      570.05849    
    413400   1002.3318     -100.65118     -290114.67      13992.519     -276122.15      2216496.7      5.6413336      572.66682    
    413600   1001.8184     -237.50792     -290167.21      13985.351     -276181.86      2216496.7      5.6413336      575.30384    
    413800   1001.2076     -44.725014     -290101.74      13976.824     -276124.92      2216496.7      5.6413336      577.94725    
    414000   997.78687     -122.77897     -290127.12      13929.071     -276198.05      2216496.7      5.6413336      580.61704    
    414200   999.20055     -120.33682     -290075.66      13948.806     -276126.85      2216496.7      5.6413336      583.30259    
    414400   1001.0028     -37.109772     -290065.05      13973.965     -276091.08      2216496.7      5.6413336      585.9066     
    414600   1002.5058     -215.53837     -290138.38      13994.947     -276143.44      2216496.7      5.6413336      588.54036    
    414800   999.63875     -65.068033     -290071.42      13954.923     -276116.5       2216496.7      5.6413336      591.18271    
    415000   1001.736      -157.01608     -290101.8       13984.201     -276117.6       2216496.7      5.6413336      593.84003    
    415200   1002.0056     -142.99217     -290124.71      13987.964     -276136.74      2216496.7      5.6413336      596.44345    
    415400   1003.3094     -163.49014     -290110.5       14006.165     -276104.34      2216496.7      5.6413336      599.05236    
    415600   998.38847     -241.60009     -290138.26      13937.47      -276200.79      2216496.7      5.6413336      601.69161    
    415800   1001.6034     -74.157717     -290090.68      13982.349     -276108.33      2216496.7      5.6413336      604.35517    
    416000   1002.3675     -110.6745      -290083.35      13993.017     -276090.34      2216496.7      5.6413336      607.0193     
    416200   1000.4678     -197.0368      -290111.9       13966.497     -276145.4       2216496.7      5.6413336      609.71671    
    416400   999.46043     -86.927546     -290119.42      13952.434     -276166.99      2216496.7      5.6413336      612.32629    
    416600   995.90117     -126.66924     -290113.56      13902.747     -276210.82      2216496.7      5.6413336      614.9601     
    416800   1001.8776     -131.64208     -290093.19      13986.178     -276107.01      2216496.7      5.6413336      617.60575    
    417000   999.23482     -75.787876     -290101.26      13949.284     -276151.97      2216496.7      5.6413336      620.26927    
    417200   999.29893     -154.83824     -290108.45      13950.179     -276158.27      2216496.7      5.6413336      622.87215    
    417400   999.2382      -29.076171     -290093.01      13949.332     -276143.67      2216496.7      5.6413336      625.4807     
    417600   998.65524     -91.495489     -290130.88      13941.194     -276189.69      2216496.7      5.6413336      628.11634    
    417800   1001.7162     -98.522421     -290151.57      13983.925     -276167.65      2216496.7      5.6413336      630.76285    
    418000   1003.1284     -57.375245     -290119.73      14003.638     -276116.09      2216496.7      5.6413336      633.43342    
    418200   997.18215     -79.071869     -290142.79      13920.629     -276222.17      2216496.7      5.6413336      636.12031    
    418400   1000.7464     -158.21262     -290101.68      13970.386     -276131.3       2216496.7      5.6413336      638.72576    
    418600   1001.5863     -149.41402     -290110.92      13982.111     -276128.81      2216496.7      5.6413336      641.35681    
    418800   995.29323     -192.22552     -290119.28      13894.26      -276225.02      2216496.7      5.6413336      643.99983    
    419000   1002.5204     -228.03054     -290119.83      13995.151     -276124.68      2216496.7      5.6413336      646.6674     
    419200   997.10239     -237.83823     -290130.67      13919.516     -276211.16      2216496.7      5.6413336      649.26187    
    419400   1003.2422     -174.60693     -290146.91      14005.227     -276141.68      2216496.7      5.6413336      651.86738    
    419600   1000.6642     -252.99798     -290093.68      13969.238     -276124.45      2216496.7      5.6413336      654.49947    
    419800   997.9629      -196.1963      -290129.35      13931.529     -276197.82      2216496.7      5.6413336      657.13937    
    420000   998.38805     -359.79151     -290181.57      13937.464     -276244.11      2216496.7      5.6413336      659.80184    
Loop time of 659.895 on 1 procs for 50000 steps with 108000 atoms

Performance: 6.546 ns/day, 3.666 hours/ns, 75.770 timesteps/s, 8.183 Matom-step/s
99.6% CPU use with 1 MPI tasks x 1 OpenMP threads

MPI task timing breakdown:
Section |  min time  |  avg time  |  max time  |%varavg| %total
---------------------------------------------------------------
Pair    | 104.18     | 104.18     | 104.18     |   0.0 | 15.79
Neigh   | 3.2794     | 3.2794     | 3.2794     |   0.0 |  0.50
Comm    | 2.7113     | 2.7113     | 2.7113     |   0.0 |  0.41
Output  | 2.5571     | 2.5571     | 2.5571     |   0.0 |  0.39
Modify  | 544.15     | 544.15     | 544.15     |   0.0 | 82.46
Other   |            | 3.012      |            |       |  0.46

Nlocal:         108000 ave      108000 max      108000 min
Histogram: 1 0 0 0 0 0 0 0 0 0
Nghost:          59580 ave       59580 max       59580 min
Histogram: 1 0 0 0 0 0 0 0 0 0
Neighs:    1.30084e+07 ave 1.30084e+07 max 1.30084e+07 min
Histogram: 1 0 0 0 0 0 0 0 0 0
FullNghs:  2.39391e+07 ave 2.39391e+07 max 2.39391e+07 min
Histogram: 1 0 0 0 0 0 0 0 0 0

Total # of neighbors = 23939094
Ave neighs/atom = 221.65828
Neighbor list builds = 854
Dangerous builds = 0
unfix           prod3

# Cleanup
undump          d3
unfix           rdf3_out
unfix           msd3_out
unfix           thermo3
uncompute       msd3
uncompute       rdf3

write_restart   restart_1000K.restart
System init for write_restart ...
Neighbor list info ...
  update: every = 1 steps, delay = 0 steps, check = yes
  max neighbors/atom: 2000, page size: 100000
  master list distance cutoff = 10.3
  ghost atom cutoff = 10.3
  binsize = 4, bins = 33 33 33
  1 neighbor lists, perpetual/occasional/extra = 1 0 0
  (1) pair eam/alloy/kk, perpetual
      attributes: full, newton off, kokkos_device
      pair build: full/bin/kk/device
      stencil: full/bin/3d
      bin: kk/device

# Save summary
variable        temp_final equal temp
variable        dens_final equal density
variable        press_final equal press
variable        pe_final equal pe

print "Results at 1000K:" append results_summary.dat
Results at 1000K:
print "  Temperature: ${temp_final} K" append results_summary.dat
  Temperature: 998.38804644192 K
print "  Density:     ${dens_final} g/cm^3" append results_summary.dat
  Density:     5.64133364052891 g/cm^3
print "  Pressure:    ${press_final} bar" append results_summary.dat
  Pressure:    -359.791510006345 bar
print "  PE/atom:     $(v_pe_final/108000) eV" append results_summary.dat
  PE/atom:     -2.6868664347709163565 eV
print " " append results_summary.dat
 

print ">>> 1000K data saved!"
>>> 1000K data saved!

# ==========================================
# Final Summary
# ==========================================
print "========================================="
=========================================
print "=== 3-TEMPERATURE STUDY COMPLETED! ==="
=== 3-TEMPERATURE STUDY COMPLETED! ===
print "========================================="
=========================================
print ""

print "Generated files:"
Generated files:
print "  293K:  thermo_293K.dat, rdf_293K.dat, msd_293K.dat, dump_293K.lammpstrj"
  293K:  thermo_293K.dat, rdf_293K.dat, msd_293K.dat, dump_293K.lammpstrj
print "  600K:  thermo_600K.dat, rdf_600K.dat, msd_600K.dat, dump_600K.lammpstrj"
  600K:  thermo_600K.dat, rdf_600K.dat, msd_600K.dat, dump_600K.lammpstrj
print "  1000K: thermo_1000K.dat, rdf_1000K.dat, msd_1000K.dat, dump_1000K.lammpstrj"
  1000K: thermo_1000K.dat, rdf_1000K.dat, msd_1000K.dat, dump_1000K.lammpstrj
print ""

print "Summary: results_summary.dat"
Summary: results_summary.dat
print "========================================="
=========================================
Total wall time: 0:42:41
