LAMMPS (22 Jul 2025 - Update 2)
KOKKOS mode with Kokkos version 4.6.2 is enabled
  will use up to 1 GPU(s) per node
  using 1 OpenMP thread(s) per MPI task
package kokkos
# H100 GPU-Optimized LAMMPS input for EPSR simulation of EGaIn eutectic alloy
# Composition: Ga0.858In0.142
# Temperature: 150°C (423.15 K)
# Potential: LJ + Empirical Potential (table)
# GPU: Using KOKKOS for H100 (Hopper architecture)

# ========== KOKKOS Initialization (CRITICAL: Must be first) ==========
# CRITICAL FIX: newton off prevents KOKKOS errors on H100
# Note: pair_style table does not have /kk support, but will run on CPU while LJ runs on GPU
package         kokkos neigh full newton off

# ========== Initialization ==========
units           real
atom_style      atomic
boundary        p p p

# ========== Force field ==========
# Use hybrid/overlay to combine LJ (GPU-accelerated) and table (CPU)
# The -sf kk flag will automatically use lj/cut/kk while table runs on CPU
# NOTE: pair_style must be defined BEFORE read_data if data file contains Pair Coeffs section
pair_style      hybrid/overlay lj/cut 12.0 table linear 200

# ========== Read structure ==========
# Use LJ-equilibrated structure as initial configuration (more stable)
shell           mkdir -p outputs
# nocoeff skips Pair Coeffs section which is incompatible with hybrid/overlay
read_data       outputs/final_structure_lj_H100.data nocoeff
Reading data file ...
  orthogonal box = (0 0 0) to (73.839453 73.839453 73.839453)
  1 by 1 by 1 MPI processor grid
WARNING: Pair style lj/cut/kk in data file differs from currently defined pair style zero (src/read_data.cpp:811)
  reading atoms ...
  20000 atoms
  reading velocities ...
  20000 velocities
  read_data CPU = 0.097 seconds

# LJ potential (GPU-accelerated with -sf kk flag)
pair_coeff      1 1 lj/cut 0.430 2.70    # Ga-Ga
pair_coeff      2 2 lj/cut 0.430 3.11    # In-In
pair_coeff      1 2 lj/cut 0.430 2.905   # Ga-In

# Empirical potential (from table files - runs on CPU)
# Table format: r, U(r), F(r)
pair_coeff      1 1 table data/ep_GaGa.table EP_GAGA 12.0
pair_coeff      2 2 table data/ep_InIn.table EP_ININ 12.0
pair_coeff      1 2 table data/ep_GaIn.table EP_GAIN 12.0

# ========== Settings ==========
mass            1 69.723    # Ga
mass            2 114.818   # In

# Optimized neighbor list for GPU
neighbor        2.0 bin
neigh_modify    delay 0 every 1 check yes binsize 4.0

# ========== Initial velocity ==========
# Re-initialize velocities for this temperature
velocity        all create 423.15 12345 dist gaussian

# ========== Thermodynamic output ==========
thermo          1000
thermo_style    custom step temp pe ke etotal press vol density cpu

# ========== Quick minimization for stability ==========
print "========== Energy Minimization =========="
========== Energy Minimization ==========
minimize        1.0e-4 1.0e-6 1000 10000
Generated 0 of 1 mixed pair_coeff terms from geometric mixing rule
Neighbor list info ...
  update: every = 1 steps, delay = 0 steps, check = yes
  max neighbors/atom: 2000, page size: 100000
  master list distance cutoff = 14
  ghost atom cutoff = 14
  binsize = 4, bins = 19 19 19
  2 neighbor lists, perpetual/occasional/extra = 2 0 0
  (1) pair lj/cut, perpetual
      attributes: full, newton off, kokkos_device
      pair build: full/bin/kk/device
      stencil: full/bin/3d
      bin: kk/device
  (2) pair table, perpetual, copy from (1)
      attributes: full, newton off, kokkos_device
      pair build: copy/kk/device
      stencil: none
      bin: none
WARNING: Fix MINIMIZE/kk not compatible with sending data in Kokkos communication (src/KOKKOS/comm_kokkos.cpp:767)
WARNING: Fix with atom-based arrays not compatible with sending data in Kokkos communication, switching to classic exchange/border communication (src/KOKKOS/comm_kokkos.cpp:780)
WARNING: Fix MINIMIZE/kk not compatible with Kokkos sorting on device (src/KOKKOS/atom_kokkos.cpp:212)
WARNING: Fix with atom-based arrays not compatible with Kokkos sorting on device, switching to classic host sorting (src/KOKKOS/atom_kokkos.cpp:218)
Per MPI rank memory allocation (min/avg/max) = 13.71 | 13.71 | 13.71 Mbytes
   Step          Temp          PotEng         KinEng         TotEng         Press          Volume        Density          CPU      
         0   423.15        -1187987.4      25225.334     -1162762.1      42811.834      402592.25      6.2796667      0            
        18   423.15        -1211320.3      25225.334     -1186095        35232.01       402592.25      6.2796667      0.032270414  
Loop time of 0.0322776 on 1 procs for 18 steps with 20000 atoms

94.3% CPU use with 1 MPI tasks x 1 OpenMP threads

Minimization stats:
  Stopping criterion = energy tolerance
  Energy initial, next-to-last, final = 
     -1187987.44111751  -1211220.29694661   -1211320.3097157
  Force two-norm initial, final = 1372.6903 104.14351
  Force max component initial, final = 43.037705 3.1164186
  Final line search alpha, max atom move = 0.0064118857 0.01998212
  Iterations, force evaluations = 18 18

MPI task timing breakdown:
Section |  min time  |  avg time  |  max time  |%varavg| %total
---------------------------------------------------------------
Pair    | 0.023006   | 0.023006   | 0.023006   |   0.0 | 71.28
Neigh   | 0.0012735  | 0.0012735  | 0.0012735  |   0.0 |  3.95
Comm    | 0.0025453  | 0.0025453  | 0.0025453  |   0.0 |  7.89
Output  | 0          | 0          | 0          |   0.0 |  0.00
Modify  | 0          | 0          | 0          |   0.0 |  0.00
Other   |            | 0.005453   |            |       | 16.89

Nlocal:          20000 ave       20000 max       20000 min
Histogram: 1 0 0 0 0 0 0 0 0 0
Nghost:          32453 ave       32453 max       32453 min
Histogram: 1 0 0 0 0 0 0 0 0 0
Neighs:              0 ave           0 max           0 min
Histogram: 1 0 0 0 0 0 0 0 0 0
FullNghs:  1.14132e+07 ave 1.14132e+07 max 1.14132e+07 min
Histogram: 1 0 0 0 0 0 0 0 0 0

Total # of neighbors = 11413230
Ave neighs/atom = 570.6615
Neighbor list builds = 1
Dangerous builds = 0
reset_timestep  0

# ========== RDF computation ==========
# Compute total and partial pair distribution functions
compute         myrdf all rdf 200 1 1 1 2 2 2 cutoff 12.0

# Time-average RDF output
fix             rdfout all ave/time 100 10 1000 c_myrdf[*] file rdf.dat mode vector

# ========== Equilibration (NVT) ==========
print "========== H100 GPU Equilibration =========="
========== H100 GPU Equilibration ==========

# Start with small timestep for stability
timestep        0.5

fix             nvt all nvt temp 423.15 423.15 100.0
run             5000
Generated 0 of 1 mixed pair_coeff terms from geometric mixing rule
Neighbor list info ...
  update: every = 1 steps, delay = 0 steps, check = yes
  max neighbors/atom: 2000, page size: 100000
  master list distance cutoff = 14
  ghost atom cutoff = 14
  binsize = 4, bins = 19 19 19
  3 neighbor lists, perpetual/occasional/extra = 2 1 0
  (1) pair lj/cut, perpetual
      attributes: full, newton off, kokkos_device
      pair build: full/bin/kk/device
      stencil: full/bin/3d
      bin: kk/device
  (2) pair table, perpetual, copy from (1)
      attributes: full, newton off, kokkos_device
      pair build: copy/kk/device
      stencil: none
      bin: none
  (3) compute rdf, occasional
      attributes: half, newton off
      pair build: half/bin/atomonly/newtoff
      stencil: full/bin/3d
      bin: standard
Per MPI rank memory allocation (min/avg/max) = 12.06 | 12.06 | 12.06 Mbytes
   Step          Temp          PotEng         KinEng         TotEng         Press          Volume        Density          CPU      
         0   423.15        -1211320.3      25225.334     -1186095        35232.01       402592.25      6.2796667      0            
      1000   358.17773     -1198415.8      21352.128     -1177063.6      43348.981      402592.25      6.2796667      3.0815753    
      2000   431.61019     -1194645.5      25729.673     -1168915.8      46240.115      402592.25      6.2796667      6.153198     
      3000   426.39551     -1194507.5      25418.809     -1169088.7      46223.329      402592.25      6.2796667      9.2212033    
      4000   424.59574     -1194668        25311.519     -1169356.5      45975.661      402592.25      6.2796667      12.300121    
      5000   423.75374     -1195100.1      25261.325     -1169838.8      45919.956      402592.25      6.2796667      15.372887    
Loop time of 15.3729 on 1 procs for 5000 steps with 20000 atoms

Performance: 14.051 ns/day, 1.708 hours/ns, 325.248 timesteps/s, 6.505 Matom-step/s
100.0% CPU use with 1 MPI tasks x 1 OpenMP threads

MPI task timing breakdown:
Section |  min time  |  avg time  |  max time  |%varavg| %total
---------------------------------------------------------------
Pair    | 2.4988     | 2.4988     | 2.4988     |   0.0 | 16.25
Neigh   | 0.038951   | 0.038951   | 0.038951   |   0.0 |  0.25
Comm    | 0.051205   | 0.051205   | 0.051205   |   0.0 |  0.33
Output  | 0.0017388  | 0.0017388  | 0.0017388  |   0.0 |  0.01
Modify  | 12.61      | 12.61      | 12.61      |   0.0 | 82.03
Other   |            | 0.1718     |            |       |  1.12

Nlocal:          20000 ave       20000 max       20000 min
Histogram: 1 0 0 0 0 0 0 0 0 0
Nghost:          32460 ave       32460 max       32460 min
Histogram: 1 0 0 0 0 0 0 0 0 0
Neighs:    6.85277e+06 ave 6.85277e+06 max 6.85277e+06 min
Histogram: 1 0 0 0 0 0 0 0 0 0
FullNghs:  1.14196e+07 ave 1.14196e+07 max 1.14196e+07 min
Histogram: 1 0 0 0 0 0 0 0 0 0

Total # of neighbors = 11419576
Ave neighs/atom = 570.9788
Neighbor list builds = 24
Dangerous builds = 0
