LAMMPS (22 Jul 2025 - Update 2)
KOKKOS mode with Kokkos version 4.6.2 is enabled
  will use up to 1 GPU(s) per node
  using 1 OpenMP thread(s) per MPI task
Reading data file ...
  orthogonal box = (0 0 0) to (26.762877 26.762877 26.762877)
  1 by 1 by 1 MPI processor grid
  reading atoms ...
  1000 atoms
  read_data CPU = 0.007 seconds
========== Energy Minimization ==========
Generated 0 of 0 mixed pair_coeff terms from geometric mixing rule
Neighbor list info ...
  update: every = 1 steps, delay = 0 steps, check = yes
  max neighbors/atom: 2000, page size: 100000
  master list distance cutoff = 14
  ghost atom cutoff = 14
  binsize = 4, bins = 7 7 7
  1 neighbor lists, perpetual/occasional/extra = 1 0 0
  (1) pair lj/cut/kk, perpetual
      attributes: full, newton off, kokkos_device
      pair build: full/bin/kk/device
      stencil: full/bin/3d
      bin: kk/device
Setting up cg/kk style minimization ...
  Unit style    : real
  Current step  : 0
WARNING: Fix MINIMIZE/kk not compatible with sending data in Kokkos communication (src/KOKKOS/comm_kokkos.cpp:767)
WARNING: Fix with atom-based arrays not compatible with sending data in Kokkos communication, switching to classic exchange/border communication (src/KOKKOS/comm_kokkos.cpp:780)
WARNING: Fix MINIMIZE/kk not compatible with Kokkos sorting on device (src/KOKKOS/atom_kokkos.cpp:212)
WARNING: Fix with atom-based arrays not compatible with Kokkos sorting on device, switching to classic host sorting (src/KOKKOS/atom_kokkos.cpp:218)
Per MPI rank memory allocation (min/avg/max) = 4.633 | 4.633 | 4.633 Mbytes
   Step          Temp          PotEng         KinEng         TotEng         Press          Volume        Density          CPU      
         0   423.15         4.1675535e+14  1260.0684      4.1675535e+14  5.9630291e+15  19168.952      6.0398583      0            
       203   423.15        -3304.9939      1260.0684     -2044.9255      4120.6368      19168.952      6.0398583      0.059506316  
Loop time of 0.0595128 on 1 procs for 203 steps with 1000 atoms

100.0% CPU use with 1 MPI tasks x 1 OpenMP threads

Minimization stats:
  Stopping criterion = energy tolerance
  Energy initial, next-to-last, final = 
       416755349294808   -3304.6665364095  -3304.99394251844
  Force two-norm initial, final = 4.020161e+16 3.647452
  Force max component initial, final = 2.2652674e+16 0.70328578
  Final line search alpha, max atom move = 0.090354839 0.063545273
  Iterations, force evaluations = 203 289

MPI task timing breakdown:
Section |  min time  |  avg time  |  max time  |%varavg| %total
---------------------------------------------------------------
Pair    | 0.011794   | 0.011794   | 0.011794   |   0.0 | 19.82
Neigh   | 0.010346   | 0.010346   | 0.010346   |   0.0 | 17.38
Comm    | 0.00599    | 0.00599    | 0.00599    |   0.0 | 10.07
Output  | 0          | 0          | 0          |   0.0 |  0.00
Modify  | 0          | 0          | 0          |   0.0 |  0.00
Other   |            | 0.03138    |            |       | 52.73

Nlocal:           1000 ave        1000 max        1000 min
Histogram: 1 0 0 0 0 0 0 0 0 0
Nghost:           7588 ave        7588 max        7588 min
Histogram: 1 0 0 0 0 0 0 0 0 0
Neighs:              0 ave           0 max           0 min
Histogram: 1 0 0 0 0 0 0 0 0 0
FullNghs:       596456 ave      596456 max      596456 min
Histogram: 1 0 0 0 0 0 0 0 0 0

Total # of neighbors = 596456
Ave neighs/atom = 596.456
Neighbor list builds = 13
Dangerous builds = 0
========== GPU Equilibration ==========
Generated 0 of 0 mixed pair_coeff terms from geometric mixing rule
Neighbor list info ...
  update: every = 1 steps, delay = 0 steps, check = yes
  max neighbors/atom: 2000, page size: 100000
  master list distance cutoff = 14
  ghost atom cutoff = 14
  binsize = 4, bins = 7 7 7
  2 neighbor lists, perpetual/occasional/extra = 1 1 0
  (1) pair lj/cut/kk, perpetual
      attributes: full, newton off, kokkos_device
      pair build: full/bin/kk/device
      stencil: full/bin/3d
      bin: kk/device
  (2) compute rdf, occasional
      attributes: half, newton off
      pair build: half/bin/atomonly/newtoff
      stencil: full/bin/3d
      bin: standard
Setting up Verlet run ...
  Unit style    : real
  Current step  : 0
  Time step     : 0.5
Per MPI rank memory allocation (min/avg/max) = 4.221 | 4.221 | 4.221 Mbytes
   Step          Temp          PotEng         KinEng         TotEng         Press          Volume        Density          CPU      
         0   423.15        -3304.9939      1260.0684     -2044.9255      4120.6368      19168.952      6.0398583      0            
      1000   394.16894     -2254.5304      1173.7678     -1080.7626      23274.889      19168.952      6.0398583      0.26346492   
      2000   404.02111     -2181.2121      1203.1059     -978.10621      24622.163      19168.952      6.0398583      0.52851252   
      3000   421.66545     -2187.2642      1255.6477     -931.61651      24722.698      19168.952      6.0398583      0.8043148    
      4000   425.77507     -2144.2694      1267.8854     -876.38395      25392.584      19168.952      6.0398583      1.0577926    
      5000   422.77702     -2158.2433      1258.9578     -899.28558      25236.078      19168.952      6.0398583      1.3340504    
      6000   402.98152     -2068.9623      1200.0102     -868.95216      26712.057      19168.952      6.0398583      1.5981072    
      7000   407.11588     -2118.1033      1212.3216     -905.78174      25789.661      19168.952      6.0398583      1.8615789    
      8000   421.38533     -2116.3636      1254.8136     -861.55         25892.705      19168.952      6.0398583      2.1256944    
      9000   433.10179     -2118.7668      1289.7032     -829.06359      25949.835      19168.952      6.0398583      2.3898803    
     10000   427.281       -2131.4053      1272.3699     -859.03542      25678.452      19168.952      6.0398583      2.6657008    
Loop time of 2.66571 on 1 procs for 10000 steps with 1000 atoms

Performance: 162.058 ns/day, 0.148 hours/ns, 3751.348 timesteps/s, 3.751 Matom-step/s
100.0% CPU use with 1 MPI tasks x 1 OpenMP threads

MPI task timing breakdown:
Section |  min time  |  avg time  |  max time  |%varavg| %total
---------------------------------------------------------------
Pair    | 0.11248    | 0.11248    | 0.11248    |   0.0 |  4.22
Neigh   | 0.034965   | 0.034965   | 0.034965   |   0.0 |  1.31
Comm    | 0.056897   | 0.056897   | 0.056897   |   0.0 |  2.13
Output  | 0.0016982  | 0.0016982  | 0.0016982  |   0.0 |  0.06
Modify  | 2.1808     | 2.1808     | 2.1808     |   0.0 | 81.81
Other   |            | 0.2788     |            |       | 10.46

Nlocal:           1000 ave        1000 max        1000 min
Histogram: 1 0 0 0 0 0 0 0 0 0
Nghost:           7528 ave        7528 max        7528 min
Histogram: 1 0 0 0 0 0 0 0 0 0
Neighs:         445429 ave      445429 max      445429 min
Histogram: 1 0 0 0 0 0 0 0 0 0
FullNghs:       598310 ave      598310 max      598310 min
Histogram: 1 0 0 0 0 0 0 0 0 0

Total # of neighbors = 598310
Ave neighs/atom = 598.31
Neighbor list builds = 41
Dangerous builds = 0
Generated 0 of 0 mixed pair_coeff terms from geometric mixing rule
Setting up Verlet run ...
  Unit style    : real
  Current step  : 10000
  Time step     : 2
Per MPI rank memory allocation (min/avg/max) = 5.747 | 5.747 | 5.747 Mbytes
   Step          Temp          PotEng         KinEng         TotEng         Press          Volume        Density          CPU      
     10000   427.281       -2131.4053      1272.3699     -859.03542      25678.452      19168.952      6.0398583      0            
     11000   422.61765     -2059.3365      1258.4832     -800.85324      27028.07       19168.952      6.0398583      0.3459337    
     12000   404.4517      -2132.7178      1204.3881     -928.32966      25536.561      19168.952      6.0398583      0.69665298   
     13000   446.98245     -2134.4084      1331.0374     -803.37103      25795.28       19168.952      6.0398583      1.0450687    
     14000   409.47653     -2157.7994      1219.3512     -938.44825      25158.783      19168.952      6.0398583      1.3948501    
     15000   431.76548     -2139.4833      1285.7239     -853.75943      25701.219      19168.952      6.0398583      1.7424813    
     16000   427.45853     -2096.3535      1272.8985     -823.45502      26309.562      19168.952      6.0398583      2.0898225    
     17000   389.58071     -2090.5646      1160.1048     -930.4598       26241.602      19168.952      6.0398583      2.4372863    
     18000   445.43264     -2140.7499      1326.4223     -814.32754      25641.142      19168.952      6.0398583      2.7835354    
     19000   433.00078     -2135.2043      1289.4024     -845.80188      25589.958      19168.952      6.0398583      3.1321493    
     20000   421.77629     -2134.331       1255.9778     -878.35321      25561.96       19168.952      6.0398583      3.4785234    
     21000   411.31587     -2101.8372      1224.8284     -877.0088       26027.883      19168.952      6.0398583      3.8259747    
     22000   395.73029     -2085.2638      1178.4172     -906.84659      26294.696      19168.952      6.0398583      4.1723502    
     23000   417.02733     -2140.2972      1241.8362     -898.46104      25385.174      19168.952      6.0398583      4.5201302    
     24000   413.03579     -2124.5024      1229.9501     -894.55232      25630.054      19168.952      6.0398583      4.8670644    
     25000   435.50515     -2089.4621      1296.86       -792.60216      26548.686      19168.952      6.0398583      5.2146176    
     26000   424.69022     -2154.1603      1264.655      -889.50537      25264.025      19168.952      6.0398583      5.5637573    
     27000   416.58717     -2152.3841      1240.5254     -911.85865      25224.45       19168.952      6.0398583      5.9122435    
     28000   435.26129     -2128.2473      1296.1338     -832.11346      25877.692      19168.952      6.0398583      6.2583058    
     29000   425.97173     -2065.8238      1268.4711     -797.35275      26874.802      19168.952      6.0398583      6.605356     
     30000   434.75964     -2107.892       1294.64       -813.25207      26064.443      19168.952      6.0398583      6.9510478    
     31000   442.08069     -2090.1822      1316.4408     -773.7414       26630.371      19168.952      6.0398583      7.2970609    
     32000   424.67282     -2180.0805      1264.6031     -915.47741      24793.477      19168.952      6.0398583      7.645441     
     33000   417.07209     -2171.6723      1241.9695     -929.70289      24953.27       19168.952      6.0398583      7.9925352    
     34000   413.06099     -2130.636       1230.0251     -900.6109       25526.811      19168.952      6.0398583      8.3392766    
     35000   409.41118     -2160.0032      1219.1566     -940.84659      25034.538      19168.952      6.0398583      8.6863007    
     36000   403.0591      -2122.5071      1200.2412     -922.26594      25622.308      19168.952      6.0398583      9.03284      
     37000   423.39516     -2164.6827      1260.7985     -903.88419      25196.241      19168.952      6.0398583      9.379588     
     38000   423.86255     -2080.7586      1262.1903     -818.56834      26536.505      19168.952      6.0398583      9.7263244    
     39000   422.76346     -2120.8079      1258.9174     -861.89052      25836.732      19168.952      6.0398583      10.074423    
     40000   423.33394     -2137.4855      1260.6162     -876.86931      25568.375      19168.952      6.0398583      10.419983    
     41000   415.26747     -2116.592       1236.5956     -879.99638      25883.452      19168.952      6.0398583      10.768123    
     42000   431.05463     -2136.6356      1283.6071     -853.02851      25535.299      19168.952      6.0398583      11.11586     
     43000   427.84382     -2177.331       1274.0458     -903.28517      24987.475      19168.952      6.0398583      11.462594    
     44000   424.94492     -2155.4793      1265.4134     -890.06584      25325.801      19168.952      6.0398583      11.809547    
     45000   419.3655      -2104.0951      1248.7989     -855.29628      26080.864      19168.952      6.0398583      12.156928    
     46000   437.74514     -2100.6095      1303.5303     -797.07925      26339.735      19168.952      6.0398583      12.50521     
     47000   403.55406     -2133.8111      1201.7151     -932.09603      25496.899      19168.952      6.0398583      12.852019    
     48000   434.60604     -2114.8429      1294.1826     -820.66035      26142.456      19168.952      6.0398583      13.199036    
     49000   427.52108     -2138.9792      1273.0848     -865.89439      25608.521      19168.952      6.0398583      13.546954    
     50000   425.43141     -2129.7215      1266.8621     -862.85941      25783.625      19168.952      6.0398583      13.89444     
Loop time of 13.8944 on 1 procs for 40000 steps with 1000 atoms

Performance: 497.465 ns/day, 0.048 hours/ns, 2878.848 timesteps/s, 2.879 Matom-step/s
100.0% CPU use with 1 MPI tasks x 1 OpenMP threads

MPI task timing breakdown:
Section |  min time  |  avg time  |  max time  |%varavg| %total
---------------------------------------------------------------
Pair    | 0.49849    | 0.49849    | 0.49849    |   0.0 |  3.59
Neigh   | 0.54715    | 0.54715    | 0.54715    |   0.0 |  3.94
Comm    | 0.37454    | 0.37454    | 0.37454    |   0.0 |  2.70
Output  | 0.0069803  | 0.0069803  | 0.0069803  |   0.0 |  0.05
Modify  | 11.295     | 11.295     | 11.295     |   0.0 | 81.29
Other   |            | 1.173      |            |       |  8.44

Nlocal:           1000 ave        1000 max        1000 min
Histogram: 1 0 0 0 0 0 0 0 0 0
Nghost:           7528 ave        7528 max        7528 min
Histogram: 1 0 0 0 0 0 0 0 0 0
Neighs:         445969 ave      445969 max      445969 min
Histogram: 1 0 0 0 0 0 0 0 0 0
FullNghs:       598082 ave      598082 max      598082 min
Histogram: 1 0 0 0 0 0 0 0 0 0

Total # of neighbors = 598082
Ave neighs/atom = 598.082
Neighbor list builds = 646
Dangerous builds = 0
========== GPU Production run ==========
Generated 0 of 0 mixed pair_coeff terms from geometric mixing rule
Neighbor list info ...
  update: every = 1 steps, delay = 0 steps, check = yes
  max neighbors/atom: 2000, page size: 100000
  master list distance cutoff = 14
  ghost atom cutoff = 14
  binsize = 4, bins = 7 7 7
  2 neighbor lists, perpetual/occasional/extra = 1 1 0
  (1) pair lj/cut/kk, perpetual
      attributes: full, newton off, kokkos_device
      pair build: full/bin/kk/device
      stencil: full/bin/3d
      bin: kk/device
  (2) compute rdf, occasional
      attributes: half, newton off
      pair build: half/bin/atomonly/newtoff
      stencil: full/bin/3d
      bin: standard
Setting up Verlet run ...
  Unit style    : real
  Current step  : 50000
  Time step     : 2
Per MPI rank memory allocation (min/avg/max) = 4.22 | 4.22 | 4.22 Mbytes
   Step          Temp          PotEng         KinEng         TotEng         Press          Volume        Density          CPU      
     50000   425.43141     -2129.7215      1266.8621     -862.85941      25783.625      19168.952      6.0398583      0            
     51000   429.62697     -2137.5558      1279.3558     -858.2          25657.716      19168.952      6.0398583      0.34496258   
     52000   418.17795     -2136.8352      1245.2625     -891.57265      25575.366      19168.952      6.0398583      0.69321681   
     53000   436.96533     -2117.0956      1301.2081     -815.88747      25979.821      19168.952      6.0398583      1.042355     
     54000   423.99464     -2129.7422      1262.5836     -867.15854      25676.075      19168.952      6.0398583      1.3880651    
     55000   407.21881     -2096.2631      1212.6281     -883.63502      26159.973      19168.952      6.0398583      1.7368415    
     56000   419.59661     -2123.935       1249.4871     -874.44793      25752.372      19168.952      6.0398583      2.0827945    
     57000   432.37224     -2130.5139      1287.5307     -842.98317      25819.418      19168.952      6.0398583      2.4309388    
     58000   438.57425     -2161.5465      1305.9992     -855.54731      25183.197      19168.952      6.0398583      2.7799809    
     59000   424.938       -2115.5147      1265.3928     -850.12194      25962.823      19168.952      6.0398583      3.1270204    
     60000   425.39568     -2081.7975      1266.7557     -815.04181      26455.206      19168.952      6.0398583      3.4753832    
     61000   427.13772     -2090.8238      1271.9432     -818.88058      26395.853      19168.952      6.0398583      3.8236067    
     62000   426.87968     -2177.4852      1271.1748     -906.31044      24857.057      19168.952      6.0398583      4.1708236    
     63000   437.16695     -2094.1647      1301.8085     -792.35612      26482.191      19168.952      6.0398583      4.5180178    
     64000   430.01722     -2113.8278      1280.5178     -833.30994      26086.597      19168.952      6.0398583      4.8649491    
     65000   440.18137     -2160.0775      1310.7849     -849.29251      25187.578      19168.952      6.0398583      5.2118393    
     66000   429.09191     -2117.182       1277.7624     -839.41959      26001.266      19168.952      6.0398583      5.5598527    
     67000   430.96344     -2161.3301      1283.3355     -877.99457      25262.562      19168.952      6.0398583      5.9070849    
     68000   413.72843     -2160.4067      1232.0126     -928.3941       24985.596      19168.952      6.0398583      6.254273     
     69000   418.60994     -2115.6221      1246.5489     -869.07315      25858.557      19168.952      6.0398583      6.6004193    
     70000   425.50616     -2105.7896      1267.0847     -838.70492      26136.433      19168.952      6.0398583      6.9464546    
     71000   420.60091     -2135.9321      1252.4777     -883.45441      25650.747      19168.952      6.0398583      7.2938146    
     72000   431.10965     -2118.524       1283.7709     -834.75311      25966.188      19168.952      6.0398583      7.6412736    
     73000   415.70884     -2116.1478      1237.9099     -878.23791      25871.416      19168.952      6.0398583      7.9906338    
     74000   431.98516     -2114.335       1286.378      -827.95695      26035.845      19168.952      6.0398583      8.3357286    
     75000   427.19948     -2090.6036      1272.1271     -818.47646      26463.723      19168.952      6.0398583      8.6839657    
     76000   416.04171     -2115.8681      1238.9012     -876.96692      25882.411      19168.952      6.0398583      9.0317251    
     77000   440.37555     -2105.3949      1311.3632     -794.03169      26277.976      19168.952      6.0398583      9.3802204    
     78000   412.91355     -2160.7796      1229.5861     -931.19351      25067.603      19168.952      6.0398583      9.7250344    
     79000   421.99829     -2173.3311      1256.6388     -916.69225      24966.915      19168.952      6.0398583      10.073706    
     80000   417.55295     -2132.935       1243.4014     -889.53365      25556.217      19168.952      6.0398583      10.420118    
     81000   408.60254     -2124.3065      1216.7486     -907.55793      25692.025      19168.952      6.0398583      10.767188    
     82000   423.3845      -2140.0256      1260.7668     -879.25883      25490.677      19168.952      6.0398583      11.115086    
     83000   412.79842     -2105.6231      1229.2432     -876.37985      26095.474      19168.952      6.0398583      11.461987    
     84000   413.88634     -2150.1313      1232.4829     -917.64845      25313.79       19168.952      6.0398583      11.809551    
     85000   412.39025     -2135.0395      1228.0277     -907.01175      25550.151      19168.952      6.0398583      12.15723     
     86000   411.74558     -2196.2957      1226.108      -970.1877       24470.953      19168.952      6.0398583      12.505633    
     87000   443.16238     -2103.8911      1319.6619     -784.22921      26371.425      19168.952      6.0398583      12.853372    
     88000   428.68757     -2142.4114      1276.5584     -865.85302      25574.743      19168.952      6.0398583      13.199525    
     89000   404.3079      -2084.0913      1203.9599     -880.13139      26506.905      19168.952      6.0398583      13.546487    
     90000   417.88196     -2087.8872      1244.3811     -843.5061       26382.109      19168.952      6.0398583      13.895077    
     91000   415.56382     -2136.3054      1237.4781     -898.82732      25508.56       19168.952      6.0398583      14.241419    
     92000   417.38418     -2102.9232      1242.8988     -860.02442      26135.468      19168.952      6.0398583      14.58852     
     93000   421.7026      -2112.933       1255.7583     -857.1747       26123.277      19168.952      6.0398583      14.935912    
     94000   429.74964     -2106.8711      1279.721      -827.1501       26209.199      19168.952      6.0398583      15.282506    
     95000   406.16564     -2103.3369      1209.4919     -893.84502      25980.058      19168.952      6.0398583      15.632399    
     96000   408.87749     -2095.8505      1217.5673     -878.28316      26176.986      19168.952      6.0398583      15.978315    
     97000   433.25627     -2112.6374      1290.1632     -822.47415      26046.982      19168.952      6.0398583      16.326012    
     98000   414.64345     -2136.7689      1234.7374     -902.03148      25562.291      19168.952      6.0398583      16.673677    
     99000   419.87801     -2114.1921      1250.325      -863.86703      25849.202      19168.952      6.0398583      17.021269    
    100000   405.13366     -2140.8863      1206.4189     -934.46743      25364.442      19168.952      6.0398583      17.368802    
    101000   438.59344     -2121.4301      1306.0564     -815.37375      25963.324      19168.952      6.0398583      17.716877    
    102000   425.17436     -2155.6108      1266.0966     -889.51418      25328.169      19168.952      6.0398583      18.065525    
    103000   414.73298     -2128.5871      1235.004      -893.58311      25760.803      19168.952      6.0398583      18.412387    
    104000   405.41359     -2112.5249      1207.2525     -905.27247      25885.807      19168.952      6.0398583      18.759534    
    105000   421.62828     -2137.5243      1255.537      -881.98729      25639.346      19168.952      6.0398583      19.107624    
    106000   427.62276     -2120.1336      1273.3876     -846.74604      25909.631      19168.952      6.0398583      19.455365    
    107000   432.43921     -2104.3501      1287.7301     -816.62001      26210.49       19168.952      6.0398583      19.804714    
    108000   412.91293     -2143.1867      1229.5842     -913.60251      25485.857      19168.952      6.0398583      20.150944    
    109000   420.75424     -2102.8789      1252.9343     -849.94462      26088.168      19168.952      6.0398583      20.498604    
    110000   434.62147     -2166.6485      1294.2285     -872.42003      25117.377      19168.952      6.0398583      20.847463    
    111000   432.31077     -2148.1919      1287.3476     -860.84428      25451.672      19168.952      6.0398583      21.193371    
    112000   437.06914     -2072.662       1301.5173     -771.1447       26712.4        19168.952      6.0398583      21.542939    
    113000   401.37444     -2158.1432      1195.2245     -962.91864      25037.346      19168.952      6.0398583      21.887683    
    114000   428.51633     -2135.1354      1276.0485     -859.08696      25706.681      19168.952      6.0398583      22.235348    
    115000   409.75023     -2099.5896      1220.1662     -879.4234       26118.032      19168.952      6.0398583      22.584052    
    116000   410.51373     -2176.8418      1222.4398     -954.40201      24756.91       19168.952      6.0398583      22.932646    
    117000   433.12644     -2132.1038      1289.7766     -842.32724      25682.69       19168.952      6.0398583      23.279749    
    118000   422.01859     -2071.5043      1256.6993     -814.80506      26847.512      19168.952      6.0398583      23.627737    
    119000   432.5616      -2157.3309      1288.0946     -869.23635      25317.526      19168.952      6.0398583      23.974358    
    120000   430.39747     -2174.0955      1281.6502     -892.44535      25020.352      19168.952      6.0398583      24.321011    
    121000   433.50403     -2116.5061      1290.901      -825.60509      26072.196      19168.952      6.0398583      24.667174    
    122000   417.712       -2127.0611      1243.875      -883.18605      25801.941      19168.952      6.0398583      25.013964    
    123000   418.84925     -2084.255       1247.2616     -836.99343      26403.838      19168.952      6.0398583      25.360834    
    124000   430.52073     -2129.4344      1282.0172     -847.41717      25823.048      19168.952      6.0398583      25.70831     
    125000   436.42984     -2192.8328      1299.6135     -893.21925      24632.166      19168.952      6.0398583      26.057293    
    126000   406.5412      -2152.6315      1210.6103     -942.02118      25144.998      19168.952      6.0398583      26.403424    
    127000   428.92796     -2115.0153      1277.2742     -837.74106      26019.5        19168.952      6.0398583      26.749869    
    128000   424.97592     -2169.0757      1265.5057     -903.57001      25015.53       19168.952      6.0398583      27.098691    
    129000   414.09158     -2118.1137      1233.094      -885.01975      25869.947      19168.952      6.0398583      27.444229    
    130000   402.6114      -2128.7197      1198.908      -929.8117       25600.592      19168.952      6.0398583      27.792186    
    131000   412.61413     -2167.0799      1228.6944     -938.38547      24972.848      19168.952      6.0398583      28.139297    
    132000   435.88186     -2132.9955      1297.9817     -835.0138       25745.568      19168.952      6.0398583      28.486845    
    133000   406.73948     -2047.0557      1211.2007     -835.855        27011.193      19168.952      6.0398583      28.836194    
    134000   422.96307     -2071.5604      1259.5118     -812.04859      26789.404      19168.952      6.0398583      29.182805    
    135000   424.09974     -2097.4003      1262.8966     -834.50366      26279.151      19168.952      6.0398583      29.528183    
    136000   420.12516     -2111.55        1251.061      -860.48902      26067.3        19168.952      6.0398583      29.876878    
    137000   424.91301     -2125.513       1265.3184     -860.19468      25812.402      19168.952      6.0398583      30.225176    
    138000   404.48551     -2176.2414      1204.4888     -971.75261      24761.378      19168.952      6.0398583      30.57027     
    139000   430.07906     -2110.6364      1280.702      -829.93444      26065.754      19168.952      6.0398583      30.917172    
    140000   421.67295     -2048.5271      1255.67       -792.85709      27026.424      19168.952      6.0398583      31.264741    
    141000   405.73669     -2100.3237      1208.2146     -892.10912      26201.68       19168.952      6.0398583      31.613599    
    142000   429.1481      -2108.4416      1277.9298     -830.5118       26121.932      19168.952      6.0398583      31.959083    
    143000   411.51352     -2136.5967      1225.417      -911.17967      25480.697      19168.952      6.0398583      32.307374    
    144000   424.97962     -2112.5614      1265.5167     -847.04469      26060.738      19168.952      6.0398583      32.653946    
    145000   427.37367     -2105.8831      1272.6458     -833.23734      26110.581      19168.952      6.0398583      33.002276    
    146000   445.24567     -2105.8163      1325.8656     -779.95074      26264.148      19168.952      6.0398583      33.34822     
    147000   426.84238     -2118.225       1271.0637     -847.16127      26063.405      19168.952      6.0398583      33.694868    
    148000   402.50093     -2079.1418      1198.579      -880.56274      26394.732      19168.952      6.0398583      34.042585    
    149000   417.20305     -2096.7913      1242.3594     -854.43181      26354.948      19168.952      6.0398583      34.390429    
    150000   433.36447     -2107.7716      1290.4854     -817.28622      26191.964      19168.952      6.0398583      34.736526    
Loop time of 34.7376 on 1 procs for 100000 steps with 1000 atoms

Performance: 497.444 ns/day, 0.048 hours/ns, 2878.726 timesteps/s, 2.879 Matom-step/s
99.9% CPU use with 1 MPI tasks x 1 OpenMP threads

MPI task timing breakdown:
Section |  min time  |  avg time  |  max time  |%varavg| %total
---------------------------------------------------------------
Pair    | 1.2427     | 1.2427     | 1.2427     |   0.0 |  3.58
Neigh   | 1.3698     | 1.3698     | 1.3698     |   0.0 |  3.94
Comm    | 0.93464    | 0.93464    | 0.93464    |   0.0 |  2.69
Output  | 0.12443    | 0.12443    | 0.12443    |   0.0 |  0.36
Modify  | 28.136     | 28.136     | 28.136     |   0.0 | 81.00
Other   |            | 2.93       |            |       |  8.43

Nlocal:           1000 ave        1000 max        1000 min
Histogram: 1 0 0 0 0 0 0 0 0 0
Nghost:           7558 ave        7558 max        7558 min
Histogram: 1 0 0 0 0 0 0 0 0 0
Neighs:         444253 ave      444253 max      444253 min
Histogram: 1 0 0 0 0 0 0 0 0 0
FullNghs:       598136 ave      598136 max      598136 min
Histogram: 1 0 0 0 0 0 0 0 0 0

Total # of neighbors = 598136
Ave neighs/atom = 598.136
Neighbor list builds = 1618
Dangerous builds = 0
========== GPU Simulation completed ==========
=========================================
FINAL RESULTS:
  Density:     6.0398582910241 g/cm^3
  Temperature: 433.364474755463 K
  Pressure:    26191.9643651337 bar
=========================================
System init for write_data ...
Generated 0 of 0 mixed pair_coeff terms from geometric mixing rule
System init for write_restart ...
Generated 0 of 0 mixed pair_coeff terms from geometric mixing rule
RDF written to rdf.dat
Final structure written to outputs/final_structure_ga_lj.data
Trajectory written to dump.ga.lj.lammpstrj
Total wall time: 0:00:52
